+ 1 0 1 cbr 210 ------- 0 0.0 1.0 0 0
- 1 0 1 cbr 210 ------- 0 0.0 1.0 0 0
+ 1 0 2 tcp 40 ------- 1 0.1 2.0 0 1
- 1 0 2 tcp 40 ------- 1 0.1 2.0 0 1
r 1.00232 0 2 tcp 40 ------- 1 0.1 2.0 0 1
+ 1.00232 2 0 ack 40 ------- 1 2.0 0.1 0 2
- 1.00232 2 0 ack 40 ------- 1 2.0 0.1 0 2
r 1.00368 0 1 cbr 210 ------- 0 0.0 1.0 0 0
+ 1.00375 0 1 cbr 210 ------- 0 0.0 1.0 1 3
- 1.00375 0 1 cbr 210 ------- 0 0.0 1.0 1 3
r 1.00464 2 0 ack 40 ------- 1 2.0 0.1 0 2
+ 1.00464 0 2 tcp 1040 ------- 1 0.1 2.0 1 4
- 1.00464 0 2 tcp 1040 ------- 1 0.1 2.0 1 4
+ 1.00464 0 2 tcp 1040 ------- 1 0.1 2.0 2 5
r 1.00743 0 1 cbr 210 ------- 0 0.0 1.0 1 3
+ 1.0075 0 1 cbr 210 ------- 0 0.0 1.0 2 6
- 1.0075 0 1 cbr 210 ------- 0 0.0 1.0 2 6
r 1.01118 0 1 cbr 210 ------- 0 0.0 1.0 2 6
+ 1.01125 0 1 cbr 210 ------- 0 0.0 1.0 3 7
- 1.01125 0 1 cbr 210 ------- 0 0.0 1.0 3 7
- 1.01296 0 2 tcp 1040 ------- 1 0.1 2.0 2 5
r 1.01493 0 1 cbr 210 ------- 0 0.0 1.0 3 7
r 1.01496 0 2 tcp 1040 ------- 1 0.1 2.0 1 4
+ 1.01496 2 0 ack 40 ------- 1 2.0 0.1 1 8
- 1.01496 2 0 ack 40 ------- 1 2.0 0.1 1 8
+ 1.015 0 1 cbr 210 ------- 0 0.0 1.0 4 9
- 1.015 0 1 cbr 210 ------- 0 0.0 1.0 4 9
r 1.01728 2 0 ack 40 ------- 1 2.0 0.1 1 8
+ 1.01728 0 2 tcp 1040 ------- 1 0.1 2.0 3 10
+ 1.01728 0 2 tcp 1040 ------- 1 0.1 2.0 4 11
r 1.01868 0 1 cbr 210 ------- 0 0.0 1.0 4 9
+ 1.01875 0 1 cbr 210 ------- 0 0.0 1.0 5 12
- 1.01875 0 1 cbr 210 ------- 0 0.0 1.0 5 12
- 1.02128 0 2 tcp 1040 ------- 1 0.1 2.0 3 10
r 1.02243 0 1 cbr 210 ------- 0 0.0 1.0 5 12
+ 1.0225 0 1 cbr 210 ------- 0 0.0 1.0 6 13
- 1.0225 0 1 cbr 210 ------- 0 0.0 1.0 6 13
r 1.02328 0 2 tcp 1040 ------- 1 0.1 2.0 2 5
+ 1.02328 2 0 ack 40 ------- 1 2.0 0.1 2 14
- 1.02328 2 0 ack 40 ------- 1 2.0 0.1 2 14
r 1.0256 2 0 ack 40 ------- 1 2.0 0.1 2 14
+ 1.0256 0 2 tcp 1040 ------- 1 0.1 2.0 5 15
+ 1.0256 0 2 tcp 1040 ------- 1 0.1 2.0 6 16
r 1.02618 0 1 cbr 210 ------- 0 0.0 1.0 6 13
+ 1.02625 0 1 cbr 210 ------- 0 0.0 1.0 7 17
- 1.02625 0 1 cbr 210 ------- 0 0.0 1.0 7 17
- 1.0296 0 2 tcp 1040 ------- 1 0.1 2.0 4 11
r 1.02993 0 1 cbr 210 ------- 0 0.0 1.0 7 17
+ 1.03 0 1 cbr 210 ------- 0 0.0 1.0 8 18
- 1.03 0 1 cbr 210 ------- 0 0.0 1.0 8 18
r 1.0316 0 2 tcp 1040 ------- 1 0.1 2.0 3 10
+ 1.0316 2 0 ack 40 ------- 1 2.0 0.1 3 19
- 1.0316 2 0 ack 40 ------- 1 2.0 0.1 3 19
r 1.03368 0 1 cbr 210 ------- 0 0.0 1.0 8 18
+ 1.03375 0 1 cbr 210 ------- 0 0.0 1.0 9 20
- 1.03375 0 1 cbr 210 ------- 0 0.0 1.0 9 20
r 1.03392 2 0 ack 40 ------- 1 2.0 0.1 3 19
+ 1.03392 0 2 tcp 1040 ------- 1 0.1 2.0 7 21
+ 1.03392 0 2 tcp 1040 ------- 1 0.1 2.0 8 22
r 1.03743 0 1 cbr 210 ------- 0 0.0 1.0 9 20
+ 1.0375 0 1 cbr 210 ------- 0 0.0 1.0 10 23
- 1.0375 0 1 cbr 210 ------- 0 0.0 1.0 10 23
- 1.03792 0 2 tcp 1040 ------- 1 0.1 2.0 5 15
r 1.03992 0 2 tcp 1040 ------- 1 0.1 2.0 4 11
+ 1.03992 2 0 ack 40 ------- 1 2.0 0.1 4 24
- 1.03992 2 0 ack 40 ------- 1 2.0 0.1 4 24
r 1.04118 0 1 cbr 210 ------- 0 0.0 1.0 10 23
+ 1.04125 0 1 cbr 210 ------- 0 0.0 1.0 11 25
- 1.04125 0 1 cbr 210 ------- 0 0.0 1.0 11 25
r 1.04224 2 0 ack 40 ------- 1 2.0 0.1 4 24
+ 1.04224 0 2 tcp 1040 ------- 1 0.1 2.0 9 26
+ 1.04224 0 2 tcp 1040 ------- 1 0.1 2.0 10 27
r 1.04493 0 1 cbr 210 ------- 0 0.0 1.0 11 25
+ 1.045 0 1 cbr 210 ------- 0 0.0 1.0 12 28
- 1.045 0 1 cbr 210 ------- 0 0.0 1.0 12 28
- 1.04624 0 2 tcp 1040 ------- 1 0.1 2.0 6 16
r 1.04824 0 2 tcp 1040 ------- 1 0.1 2.0 5 15
+ 1.04824 2 0 ack 40 ------- 1 2.0 0.1 5 29
- 1.04824 2 0 ack 40 ------- 1 2.0 0.1 5 29
r 1.04868 0 1 cbr 210 ------- 0 0.0 1.0 12 28
+ 1.04875 0 1 cbr 210 ------- 0 0.0 1.0 13 30
- 1.04875 0 1 cbr 210 ------- 0 0.0 1.0 13 30
r 1.05056 2 0 ack 40 ------- 1 2.0 0.1 5 29
+ 1.05056 0 2 tcp 1040 ------- 1 0.1 2.0 11 31
+ 1.05056 0 2 tcp 1040 ------- 1 0.1 2.0 12 32
r 1.05243 0 1 cbr 210 ------- 0 0.0 1.0 13 30
+ 1.0525 0 1 cbr 210 ------- 0 0.0 1.0 14 33
- 1.0525 0 1 cbr 210 ------- 0 0.0 1.0 14 33
- 1.05456 0 2 tcp 1040 ------- 1 0.1 2.0 7 21
r 1.05618 0 1 cbr 210 ------- 0 0.0 1.0 14 33
+ 1.05625 0 1 cbr 210 ------- 0 0.0 1.0 15 34
- 1.05625 0 1 cbr 210 ------- 0 0.0 1.0 15 34
r 1.05656 0 2 tcp 1040 ------- 1 0.1 2.0 6 16
+ 1.05656 2 0 ack 40 ------- 1 2.0 0.1 6 35
- 1.05656 2 0 ack 40 ------- 1 2.0 0.1 6 35
r 1.05888 2 0 ack 40 ------- 1 2.0 0.1 6 35
+ 1.05888 0 2 tcp 1040 ------- 1 0.1 2.0 13 36
+ 1.05888 0 2 tcp 1040 ------- 1 0.1 2.0 14 37
r 1.05993 0 1 cbr 210 ------- 0 0.0 1.0 15 34
+ 1.06 0 1 cbr 210 ------- 0 0.0 1.0 16 38
- 1.06 0 1 cbr 210 ------- 0 0.0 1.0 16 38
- 1.06288 0 2 tcp 1040 ------- 1 0.1 2.0 8 22
r 1.06368 0 1 cbr 210 ------- 0 0.0 1.0 16 38
+ 1.06375 0 1 cbr 210 ------- 0 0.0 1.0 17 39
- 1.06375 0 1 cbr 210 ------- 0 0.0 1.0 17 39
r 1.06488 0 2 tcp 1040 ------- 1 0.1 2.0 7 21
+ 1.06488 2 0 ack 40 ------- 1 2.0 0.1 7 40
- 1.06488 2 0 ack 40 ------- 1 2.0 0.1 7 40
r 1.0672 2 0 ack 40 ------- 1 2.0 0.1 7 40
+ 1.0672 0 2 tcp 1040 ------- 1 0.1 2.0 15 41
+ 1.0672 0 2 tcp 1040 ------- 1 0.1 2.0 16 42
r 1.06743 0 1 cbr 210 ------- 0 0.0 1.0 17 39
+ 1.0675 0 1 cbr 210 ------- 0 0.0 1.0 18 43
- 1.0675 0 1 cbr 210 ------- 0 0.0 1.0 18 43
r 1.07118 0 1 cbr 210 ------- 0 0.0 1.0 18 43
- 1.0712 0 2 tcp 1040 ------- 1 0.1 2.0 9 26
+ 1.07125 0 1 cbr 210 ------- 0 0.0 1.0 19 44
- 1.07125 0 1 cbr 210 ------- 0 0.0 1.0 19 44
r 1.0732 0 2 tcp 1040 ------- 1 0.1 2.0 8 22
+ 1.0732 2 0 ack 40 ------- 1 2.0 0.1 8 45
- 1.0732 2 0 ack 40 ------- 1 2.0 0.1 8 45
r 1.07493 0 1 cbr 210 ------- 0 0.0 1.0 19 44
+ 1.075 0 1 cbr 210 ------- 0 0.0 1.0 20 46
- 1.075 0 1 cbr 210 ------- 0 0.0 1.0 20 46
r 1.07552 2 0 ack 40 ------- 1 2.0 0.1 8 45
+ 1.07552 0 2 tcp 1040 ------- 1 0.1 2.0 17 47
+ 1.07552 0 2 tcp 1040 ------- 1 0.1 2.0 18 48
r 1.07868 0 1 cbr 210 ------- 0 0.0 1.0 20 46
+ 1.07875 0 1 cbr 210 ------- 0 0.0 1.0 21 49
- 1.07875 0 1 cbr 210 ------- 0 0.0 1.0 21 49
- 1.07952 0 2 tcp 1040 ------- 1 0.1 2.0 10 27
r 1.08152 0 2 tcp 1040 ------- 1 0.1 2.0 9 26
+ 1.08152 2 0 ack 40 ------- 1 2.0 0.1 9 50
- 1.08152 2 0 ack 40 ------- 1 2.0 0.1 9 50
r 1.08243 0 1 cbr 210 ------- 0 0.0 1.0 21 49
+ 1.0825 0 1 cbr 210 ------- 0 0.0 1.0 22 51
- 1.0825 0 1 cbr 210 ------- 0 0.0 1.0 22 51
r 1.08384 2 0 ack 40 ------- 1 2.0 0.1 9 50
+ 1.08384 0 2 tcp 1040 ------- 1 0.1 2.0 19 52
+ 1.08384 0 2 tcp 1040 ------- 1 0.1 2.0 20 53
r 1.08618 0 1 cbr 210 ------- 0 0.0 1.0 22 51
+ 1.08625 0 1 cbr 210 ------- 0 0.0 1.0 23 54
- 1.08625 0 1 cbr 210 ------- 0 0.0 1.0 23 54
- 1.08784 0 2 tcp 1040 ------- 1 0.1 2.0 11 31
r 1.08984 0 2 tcp 1040 ------- 1 0.1 2.0 10 27
+ 1.08984 2 0 ack 40 ------- 1 2.0 0.1 10 55
- 1.08984 2 0 ack 40 ------- 1 2.0 0.1 10 55
r 1.08993 0 1 cbr 210 ------- 0 0.0 1.0 23 54
+ 1.09 0 1 cbr 210 ------- 0 0.0 1.0 24 56
- 1.09 0 1 cbr 210 ------- 0 0.0 1.0 24 56
r 1.09216 2 0 ack 40 ------- 1 2.0 0.1 10 55
+ 1.09216 0 2 tcp 1040 ------- 1 0.1 2.0 21 57
+ 1.09216 0 2 tcp 1040 ------- 1 0.1 2.0 22 58
r 1.09368 0 1 cbr 210 ------- 0 0.0 1.0 24 56
+ 1.09375 0 1 cbr 210 ------- 0 0.0 1.0 25 59
- 1.09375 0 1 cbr 210 ------- 0 0.0 1.0 25 59
- 1.09616 0 2 tcp 1040 ------- 1 0.1 2.0 12 32
r 1.09743 0 1 cbr 210 ------- 0 0.0 1.0 25 59
+ 1.0975 0 1 cbr 210 ------- 0 0.0 1.0 26 60
- 1.0975 0 1 cbr 210 ------- 0 0.0 1.0 26 60
r 1.09816 0 2 tcp 1040 ------- 1 0.1 2.0 11 31
+ 1.09816 2 0 ack 40 ------- 1 2.0 0.1 11 61
- 1.09816 2 0 ack 40 ------- 1 2.0 0.1 11 61
+ 1.1 1 3 cbr 210 ------- 0 1.1 3.0 0 62
- 1.1 1 3 cbr 210 ------- 0 1.1 3.0 0 62
+ 1.1 1 4 cbr 210 ------- 0 1.2 4.0 0 63
- 1.1 1 4 cbr 210 ------- 0 1.2 4.0 0 63
+ 1.1 2 5 tcp 40 ------- 1 2.1 5.0 0 64
- 1.1 2 5 tcp 40 ------- 1 2.1 5.0 0 64
+ 1.1 2 6 tcp 40 ------- 1 2.2 6.0 0 65
- 1.1 2 6 tcp 40 ------- 1 2.2 6.0 0 65
r 1.10048 2 0 ack 40 ------- 1 2.0 0.1 11 61
+ 1.10048 0 2 tcp 1040 ------- 1 0.1 2.0 23 66
+ 1.10048 0 2 tcp 1040 ------- 1 0.1 2.0 24 67
r 1.10118 0 1 cbr 210 ------- 0 0.0 1.0 26 60
+ 1.10125 0 1 cbr 210 ------- 0 0.0 1.0 27 68
- 1.10125 0 1 cbr 210 ------- 0 0.0 1.0 27 68
r 1.10232 2 5 tcp 40 ------- 1 2.1 5.0 0 64
+ 1.10232 5 2 ack 40 ------- 1 5.0 2.1 0 69
- 1.10232 5 2 ack 40 ------- 1 5.0 2.1 0 69
r 1.10232 2 6 tcp 40 ------- 1 2.2 6.0 0 65
+ 1.10232 6 2 ack 40 ------- 1 6.0 2.2 0 70
- 1.10232 6 2 ack 40 ------- 1 6.0 2.2 0 70
r 1.10368 1 3 cbr 210 ------- 0 1.1 3.0 0 62
r 1.10368 1 4 cbr 210 ------- 0 1.2 4.0 0 63
+ 1.10375 1 3 cbr 210 ------- 0 1.1 3.0 1 71
- 1.10375 1 3 cbr 210 ------- 0 1.1 3.0 1 71
+ 1.10375 1 4 cbr 210 ------- 0 1.2 4.0 1 72
- 1.10375 1 4 cbr 210 ------- 0 1.2 4.0 1 72
- 1.10448 0 2 tcp 1040 ------- 1 0.1 2.0 13 36
r 1.10464 5 2 ack 40 ------- 1 5.0 2.1 0 69
+ 1.10464 2 5 tcp 1040 ------- 1 2.1 5.0 1 73
- 1.10464 2 5 tcp 1040 ------- 1 2.1 5.0 1 73
+ 1.10464 2 5 tcp 1040 ------- 1 2.1 5.0 2 74
r 1.10464 6 2 ack 40 ------- 1 6.0 2.2 0 70
+ 1.10464 2 6 tcp 1040 ------- 1 2.2 6.0 1 75
- 1.10464 2 6 tcp 1040 ------- 1 2.2 6.0 1 75
+ 1.10464 2 6 tcp 1040 ------- 1 2.2 6.0 2 76
r 1.10493 0 1 cbr 210 ------- 0 0.0 1.0 27 68
+ 1.105 0 1 cbr 210 ------- 0 0.0 1.0 28 77
- 1.105 0 1 cbr 210 ------- 0 0.0 1.0 28 77
r 1.10648 0 2 tcp 1040 ------- 1 0.1 2.0 12 32
+ 1.10648 2 0 ack 40 ------- 1 2.0 0.1 12 78
- 1.10648 2 0 ack 40 ------- 1 2.0 0.1 12 78
r 1.10743 1 3 cbr 210 ------- 0 1.1 3.0 1 71
r 1.10743 1 4 cbr 210 ------- 0 1.2 4.0 1 72
+ 1.1075 1 3 cbr 210 ------- 0 1.1 3.0 2 79
- 1.1075 1 3 cbr 210 ------- 0 1.1 3.0 2 79
+ 1.1075 1 4 cbr 210 ------- 0 1.2 4.0 2 80
- 1.1075 1 4 cbr 210 ------- 0 1.2 4.0 2 80
r 1.10868 0 1 cbr 210 ------- 0 0.0 1.0 28 77
+ 1.10875 0 1 cbr 210 ------- 0 0.0 1.0 29 81
- 1.10875 0 1 cbr 210 ------- 0 0.0 1.0 29 81
r 1.1088 2 0 ack 40 ------- 1 2.0 0.1 12 78
+ 1.1088 0 2 tcp 1040 ------- 1 0.1 2.0 25 82
+ 1.1088 0 2 tcp 1040 ------- 1 0.1 2.0 26 83
r 1.11118 1 3 cbr 210 ------- 0 1.1 3.0 2 79
r 1.11118 1 4 cbr 210 ------- 0 1.2 4.0 2 80
+ 1.11125 1 3 cbr 210 ------- 0 1.1 3.0 3 84
- 1.11125 1 3 cbr 210 ------- 0 1.1 3.0 3 84
+ 1.11125 1 4 cbr 210 ------- 0 1.2 4.0 3 85
- 1.11125 1 4 cbr 210 ------- 0 1.2 4.0 3 85
r 1.11243 0 1 cbr 210 ------- 0 0.0 1.0 29 81
+ 1.1125 0 1 cbr 210 ------- 0 0.0 1.0 30 86
- 1.1125 0 1 cbr 210 ------- 0 0.0 1.0 30 86
- 1.1128 0 2 tcp 1040 ------- 1 0.1 2.0 14 37
- 1.11296 2 5 tcp 1040 ------- 1 2.1 5.0 2 74
- 1.11296 2 6 tcp 1040 ------- 1 2.2 6.0 2 76
r 1.1148 0 2 tcp 1040 ------- 1 0.1 2.0 13 36
+ 1.1148 2 0 ack 40 ------- 1 2.0 0.1 13 87
- 1.1148 2 0 ack 40 ------- 1 2.0 0.1 13 87
r 1.11493 1 3 cbr 210 ------- 0 1.1 3.0 3 84
r 1.11493 1 4 cbr 210 ------- 0 1.2 4.0 3 85
r 1.11496 2 5 tcp 1040 ------- 1 2.1 5.0 1 73
+ 1.11496 5 2 ack 40 ------- 1 5.0 2.1 1 88
- 1.11496 5 2 ack 40 ------- 1 5.0 2.1 1 88
r 1.11496 2 6 tcp 1040 ------- 1 2.2 6.0 1 75
+ 1.11496 6 2 ack 40 ------- 1 6.0 2.2 1 89
- 1.11496 6 2 ack 40 ------- 1 6.0 2.2 1 89
+ 1.115 1 3 cbr 210 ------- 0 1.1 3.0 4 90
- 1.115 1 3 cbr 210 ------- 0 1.1 3.0 4 90
+ 1.115 1 4 cbr 210 ------- 0 1.2 4.0 4 91
- 1.115 1 4 cbr 210 ------- 0 1.2 4.0 4 91
r 1.11618 0 1 cbr 210 ------- 0 0.0 1.0 30 86
+ 1.11625 0 1 cbr 210 ------- 0 0.0 1.0 31 92
- 1.11625 0 1 cbr 210 ------- 0 0.0 1.0 31 92
r 1.11712 2 0 ack 40 ------- 1 2.0 0.1 13 87
+ 1.11712 0 2 tcp 1040 ------- 1 0.1 2.0 27 93
+ 1.11712 0 2 tcp 1040 ------- 1 0.1 2.0 28 94
r 1.11728 5 2 ack 40 ------- 1 5.0 2.1 1 88
+ 1.11728 2 5 tcp 1040 ------- 1 2.1 5.0 3 95
+ 1.11728 2 5 tcp 1040 ------- 1 2.1 5.0 4 96
r 1.11728 6 2 ack 40 ------- 1 6.0 2.2 1 89
+ 1.11728 2 6 tcp 1040 ------- 1 2.2 6.0 3 97
+ 1.11728 2 6 tcp 1040 ------- 1 2.2 6.0 4 98
r 1.11868 1 3 cbr 210 ------- 0 1.1 3.0 4 90
r 1.11868 1 4 cbr 210 ------- 0 1.2 4.0 4 91
+ 1.11875 1 3 cbr 210 ------- 0 1.1 3.0 5 99
- 1.11875 1 3 cbr 210 ------- 0 1.1 3.0 5 99
+ 1.11875 1 4 cbr 210 ------- 0 1.2 4.0 5 100
- 1.11875 1 4 cbr 210 ------- 0 1.2 4.0 5 100
r 1.11993 0 1 cbr 210 ------- 0 0.0 1.0 31 92
+ 1.12 0 1 cbr 210 ------- 0 0.0 1.0 32 101
- 1.12 0 1 cbr 210 ------- 0 0.0 1.0 32 101
- 1.12112 0 2 tcp 1040 ------- 1 0.1 2.0 15 41
- 1.12128 2 5 tcp 1040 ------- 1 2.1 5.0 3 95
- 1.12128 2 6 tcp 1040 ------- 1 2.2 6.0 3 97
r 1.12243 1 3 cbr 210 ------- 0 1.1 3.0 5 99
r 1.12243 1 4 cbr 210 ------- 0 1.2 4.0 5 100
+ 1.1225 1 3 cbr 210 ------- 0 1.1 3.0 6 102
- 1.1225 1 3 cbr 210 ------- 0 1.1 3.0 6 102
+ 1.1225 1 4 cbr 210 ------- 0 1.2 4.0 6 103
- 1.1225 1 4 cbr 210 ------- 0 1.2 4.0 6 103
r 1.12312 0 2 tcp 1040 ------- 1 0.1 2.0 14 37
+ 1.12312 2 0 ack 40 ------- 1 2.0 0.1 14 104
- 1.12312 2 0 ack 40 ------- 1 2.0 0.1 14 104
r 1.12328 2 5 tcp 1040 ------- 1 2.1 5.0 2 74
+ 1.12328 5 2 ack 40 ------- 1 5.0 2.1 2 105
- 1.12328 5 2 ack 40 ------- 1 5.0 2.1 2 105
r 1.12328 2 6 tcp 1040 ------- 1 2.2 6.0 2 76
+ 1.12328 6 2 ack 40 ------- 1 6.0 2.2 2 106
- 1.12328 6 2 ack 40 ------- 1 6.0 2.2 2 106
r 1.12368 0 1 cbr 210 ------- 0 0.0 1.0 32 101
+ 1.12375 0 1 cbr 210 ------- 0 0.0 1.0 33 107
- 1.12375 0 1 cbr 210 ------- 0 0.0 1.0 33 107
r 1.12544 2 0 ack 40 ------- 1 2.0 0.1 14 104
+ 1.12544 0 2 tcp 1040 ------- 1 0.1 2.0 29 108
+ 1.12544 0 2 tcp 1040 ------- 1 0.1 2.0 30 109
r 1.1256 5 2 ack 40 ------- 1 5.0 2.1 2 105
+ 1.1256 2 5 tcp 1040 ------- 1 2.1 5.0 5 110
+ 1.1256 2 5 tcp 1040 ------- 1 2.1 5.0 6 111
r 1.1256 6 2 ack 40 ------- 1 6.0 2.2 2 106
+ 1.1256 2 6 tcp 1040 ------- 1 2.2 6.0 5 112
+ 1.1256 2 6 tcp 1040 ------- 1 2.2 6.0 6 113
r 1.12618 1 3 cbr 210 ------- 0 1.1 3.0 6 102
r 1.12618 1 4 cbr 210 ------- 0 1.2 4.0 6 103
+ 1.12625 1 3 cbr 210 ------- 0 1.1 3.0 7 114
- 1.12625 1 3 cbr 210 ------- 0 1.1 3.0 7 114
+ 1.12625 1 4 cbr 210 ------- 0 1.2 4.0 7 115
- 1.12625 1 4 cbr 210 ------- 0 1.2 4.0 7 115
r 1.12743 0 1 cbr 210 ------- 0 0.0 1.0 33 107
+ 1.1275 0 1 cbr 210 ------- 0 0.0 1.0 34 116
- 1.1275 0 1 cbr 210 ------- 0 0.0 1.0 34 116
- 1.12944 0 2 tcp 1040 ------- 1 0.1 2.0 16 42
- 1.1296 2 5 tcp 1040 ------- 1 2.1 5.0 4 96
- 1.1296 2 6 tcp 1040 ------- 1 2.2 6.0 4 98
r 1.12993 1 3 cbr 210 ------- 0 1.1 3.0 7 114
r 1.12993 1 4 cbr 210 ------- 0 1.2 4.0 7 115
+ 1.13 1 3 cbr 210 ------- 0 1.1 3.0 8 117
- 1.13 1 3 cbr 210 ------- 0 1.1 3.0 8 117
+ 1.13 1 4 cbr 210 ------- 0 1.2 4.0 8 118
- 1.13 1 4 cbr 210 ------- 0 1.2 4.0 8 118
r 1.13118 0 1 cbr 210 ------- 0 0.0 1.0 34 116
+ 1.13125 0 1 cbr 210 ------- 0 0.0 1.0 35 119
- 1.13125 0 1 cbr 210 ------- 0 0.0 1.0 35 119
r 1.13144 0 2 tcp 1040 ------- 1 0.1 2.0 15 41
+ 1.13144 2 0 ack 40 ------- 1 2.0 0.1 15 120
- 1.13144 2 0 ack 40 ------- 1 2.0 0.1 15 120
r 1.1316 2 5 tcp 1040 ------- 1 2.1 5.0 3 95
+ 1.1316 5 2 ack 40 ------- 1 5.0 2.1 3 121
- 1.1316 5 2 ack 40 ------- 1 5.0 2.1 3 121
r 1.1316 2 6 tcp 1040 ------- 1 2.2 6.0 3 97
+ 1.1316 6 2 ack 40 ------- 1 6.0 2.2 3 122
- 1.1316 6 2 ack 40 ------- 1 6.0 2.2 3 122
r 1.13368 1 3 cbr 210 ------- 0 1.1 3.0 8 117
r 1.13368 1 4 cbr 210 ------- 0 1.2 4.0 8 118
+ 1.13375 1 3 cbr 210 ------- 0 1.1 3.0 9 123
- 1.13375 1 3 cbr 210 ------- 0 1.1 3.0 9 123
+ 1.13375 1 4 cbr 210 ------- 0 1.2 4.0 9 124
- 1.13375 1 4 cbr 210 ------- 0 1.2 4.0 9 124
r 1.13376 2 0 ack 40 ------- 1 2.0 0.1 15 120
+ 1.13376 0 2 tcp 1040 ------- 1 0.1 2.0 31 125
+ 1.13376 0 2 tcp 1040 ------- 1 0.1 2.0 32 126
r 1.13392 5 2 ack 40 ------- 1 5.0 2.1 3 121
+ 1.13392 2 5 tcp 1040 ------- 1 2.1 5.0 7 127
+ 1.13392 2 5 tcp 1040 ------- 1 2.1 5.0 8 128
r 1.13392 6 2 ack 40 ------- 1 6.0 2.2 3 122
+ 1.13392 2 6 tcp 1040 ------- 1 2.2 6.0 7 129
+ 1.13392 2 6 tcp 1040 ------- 1 2.2 6.0 8 130
r 1.13493 0 1 cbr 210 ------- 0 0.0 1.0 35 119
+ 1.135 0 1 cbr 210 ------- 0 0.0 1.0 36 131
- 1.135 0 1 cbr 210 ------- 0 0.0 1.0 36 131
r 1.13743 1 3 cbr 210 ------- 0 1.1 3.0 9 123
r 1.13743 1 4 cbr 210 ------- 0 1.2 4.0 9 124
+ 1.1375 1 3 cbr 210 ------- 0 1.1 3.0 10 132
- 1.1375 1 3 cbr 210 ------- 0 1.1 3.0 10 132
+ 1.1375 1 4 cbr 210 ------- 0 1.2 4.0 10 133
- 1.1375 1 4 cbr 210 ------- 0 1.2 4.0 10 133
- 1.13776 0 2 tcp 1040 ------- 1 0.1 2.0 17 47
- 1.13792 2 5 tcp 1040 ------- 1 2.1 5.0 5 110
- 1.13792 2 6 tcp 1040 ------- 1 2.2 6.0 5 112
r 1.13868 0 1 cbr 210 ------- 0 0.0 1.0 36 131
+ 1.13875 0 1 cbr 210 ------- 0 0.0 1.0 37 134
- 1.13875 0 1 cbr 210 ------- 0 0.0 1.0 37 134
r 1.13976 0 2 tcp 1040 ------- 1 0.1 2.0 16 42
+ 1.13976 2 0 ack 40 ------- 1 2.0 0.1 16 135
- 1.13976 2 0 ack 40 ------- 1 2.0 0.1 16 135
r 1.13992 2 5 tcp 1040 ------- 1 2.1 5.0 4 96
+ 1.13992 5 2 ack 40 ------- 1 5.0 2.1 4 136
- 1.13992 5 2 ack 40 ------- 1 5.0 2.1 4 136
r 1.13992 2 6 tcp 1040 ------- 1 2.2 6.0 4 98
+ 1.13992 6 2 ack 40 ------- 1 6.0 2.2 4 137
- 1.13992 6 2 ack 40 ------- 1 6.0 2.2 4 137
r 1.14118 1 3 cbr 210 ------- 0 1.1 3.0 10 132
r 1.14118 1 4 cbr 210 ------- 0 1.2 4.0 10 133
+ 1.14125 1 3 cbr 210 ------- 0 1.1 3.0 11 138
- 1.14125 1 3 cbr 210 ------- 0 1.1 3.0 11 138
+ 1.14125 1 4 cbr 210 ------- 0 1.2 4.0 11 139
- 1.14125 1 4 cbr 210 ------- 0 1.2 4.0 11 139
r 1.14208 2 0 ack 40 ------- 1 2.0 0.1 16 135
+ 1.14208 0 2 tcp 1040 ------- 1 0.1 2.0 33 140
+ 1.14208 0 2 tcp 1040 ------- 1 0.1 2.0 34 141
r 1.14224 5 2 ack 40 ------- 1 5.0 2.1 4 136
+ 1.14224 2 5 tcp 1040 ------- 1 2.1 5.0 9 142
+ 1.14224 2 5 tcp 1040 ------- 1 2.1 5.0 10 143
r 1.14224 6 2 ack 40 ------- 1 6.0 2.2 4 137
+ 1.14224 2 6 tcp 1040 ------- 1 2.2 6.0 9 144
+ 1.14224 2 6 tcp 1040 ------- 1 2.2 6.0 10 145
r 1.14243 0 1 cbr 210 ------- 0 0.0 1.0 37 134
+ 1.1425 0 1 cbr 210 ------- 0 0.0 1.0 38 146
- 1.1425 0 1 cbr 210 ------- 0 0.0 1.0 38 146
r 1.14493 1 3 cbr 210 ------- 0 1.1 3.0 11 138
r 1.14493 1 4 cbr 210 ------- 0 1.2 4.0 11 139
+ 1.145 1 3 cbr 210 ------- 0 1.1 3.0 12 147
- 1.145 1 3 cbr 210 ------- 0 1.1 3.0 12 147
+ 1.145 1 4 cbr 210 ------- 0 1.2 4.0 12 148
- 1.145 1 4 cbr 210 ------- 0 1.2 4.0 12 148
- 1.14608 0 2 tcp 1040 ------- 1 0.1 2.0 18 48
r 1.14618 0 1 cbr 210 ------- 0 0.0 1.0 38 146
- 1.14624 2 5 tcp 1040 ------- 1 2.1 5.0 6 111
- 1.14624 2 6 tcp 1040 ------- 1 2.2 6.0 6 113
+ 1.14625 0 1 cbr 210 ------- 0 0.0 1.0 39 149
- 1.14625 0 1 cbr 210 ------- 0 0.0 1.0 39 149
r 1.14808 0 2 tcp 1040 ------- 1 0.1 2.0 17 47
+ 1.14808 2 0 ack 40 ------- 1 2.0 0.1 17 150
- 1.14808 2 0 ack 40 ------- 1 2.0 0.1 17 150
r 1.14824 2 5 tcp 1040 ------- 1 2.1 5.0 5 110
+ 1.14824 5 2 ack 40 ------- 1 5.0 2.1 5 151
- 1.14824 5 2 ack 40 ------- 1 5.0 2.1 5 151
r 1.14824 2 6 tcp 1040 ------- 1 2.2 6.0 5 112
+ 1.14824 6 2 ack 40 ------- 1 6.0 2.2 5 152
- 1.14824 6 2 ack 40 ------- 1 6.0 2.2 5 152
r 1.14868 1 3 cbr 210 ------- 0 1.1 3.0 12 147
r 1.14868 1 4 cbr 210 ------- 0 1.2 4.0 12 148
+ 1.14875 1 3 cbr 210 ------- 0 1.1 3.0 13 153
- 1.14875 1 3 cbr 210 ------- 0 1.1 3.0 13 153
+ 1.14875 1 4 cbr 210 ------- 0 1.2 4.0 13 154
- 1.14875 1 4 cbr 210 ------- 0 1.2 4.0 13 154
r 1.14993 0 1 cbr 210 ------- 0 0.0 1.0 39 149
+ 1.15 0 1 cbr 210 ------- 0 0.0 1.0 40 155
- 1.15 0 1 cbr 210 ------- 0 0.0 1.0 40 155
r 1.1504 2 0 ack 40 ------- 1 2.0 0.1 17 150
+ 1.1504 0 2 tcp 1040 ------- 1 0.1 2.0 35 156
+ 1.1504 0 2 tcp 1040 ------- 1 0.1 2.0 36 157
r 1.15056 5 2 ack 40 ------- 1 5.0 2.1 5 151
+ 1.15056 2 5 tcp 1040 ------- 1 2.1 5.0 11 158
+ 1.15056 2 5 tcp 1040 ------- 1 2.1 5.0 12 159
r 1.15056 6 2 ack 40 ------- 1 6.0 2.2 5 152
+ 1.15056 2 6 tcp 1040 ------- 1 2.2 6.0 11 160
+ 1.15056 2 6 tcp 1040 ------- 1 2.2 6.0 12 161
r 1.15243 1 3 cbr 210 ------- 0 1.1 3.0 13 153
r 1.15243 1 4 cbr 210 ------- 0 1.2 4.0 13 154
+ 1.1525 1 3 cbr 210 ------- 0 1.1 3.0 14 162
- 1.1525 1 3 cbr 210 ------- 0 1.1 3.0 14 162
+ 1.1525 1 4 cbr 210 ------- 0 1.2 4.0 14 163
- 1.1525 1 4 cbr 210 ------- 0 1.2 4.0 14 163
r 1.15368 0 1 cbr 210 ------- 0 0.0 1.0 40 155
+ 1.15375 0 1 cbr 210 ------- 0 0.0 1.0 41 164
- 1.15375 0 1 cbr 210 ------- 0 0.0 1.0 41 164
- 1.1544 0 2 tcp 1040 ------- 1 0.1 2.0 19 52
- 1.15456 2 5 tcp 1040 ------- 1 2.1 5.0 7 127
- 1.15456 2 6 tcp 1040 ------- 1 2.2 6.0 7 129
r 1.15618 1 3 cbr 210 ------- 0 1.1 3.0 14 162
r 1.15618 1 4 cbr 210 ------- 0 1.2 4.0 14 163
+ 1.15625 1 3 cbr 210 ------- 0 1.1 3.0 15 165
- 1.15625 1 3 cbr 210 ------- 0 1.1 3.0 15 165
+ 1.15625 1 4 cbr 210 ------- 0 1.2 4.0 15 166
- 1.15625 1 4 cbr 210 ------- 0 1.2 4.0 15 166
r 1.1564 0 2 tcp 1040 ------- 1 0.1 2.0 18 48
+ 1.1564 2 0 ack 40 ------- 1 2.0 0.1 18 167
- 1.1564 2 0 ack 40 ------- 1 2.0 0.1 18 167
r 1.15656 2 5 tcp 1040 ------- 1 2.1 5.0 6 111
+ 1.15656 5 2 ack 40 ------- 1 5.0 2.1 6 168
- 1.15656 5 2 ack 40 ------- 1 5.0 2.1 6 168
r 1.15656 2 6 tcp 1040 ------- 1 2.2 6.0 6 113
+ 1.15656 6 2 ack 40 ------- 1 6.0 2.2 6 169
- 1.15656 6 2 ack 40 ------- 1 6.0 2.2 6 169
r 1.15743 0 1 cbr 210 ------- 0 0.0 1.0 41 164
+ 1.1575 0 1 cbr 210 ------- 0 0.0 1.0 42 170
- 1.1575 0 1 cbr 210 ------- 0 0.0 1.0 42 170
r 1.15872 2 0 ack 40 ------- 1 2.0 0.1 18 167
+ 1.15872 0 2 tcp 1040 ------- 1 0.1 2.0 37 171
+ 1.15872 0 2 tcp 1040 ------- 1 0.1 2.0 38 172
r 1.15888 5 2 ack 40 ------- 1 5.0 2.1 6 168
+ 1.15888 2 5 tcp 1040 ------- 1 2.1 5.0 13 173
+ 1.15888 2 5 tcp 1040 ------- 1 2.1 5.0 14 174
r 1.15888 6 2 ack 40 ------- 1 6.0 2.2 6 169
+ 1.15888 2 6 tcp 1040 ------- 1 2.2 6.0 13 175
+ 1.15888 2 6 tcp 1040 ------- 1 2.2 6.0 14 176
r 1.15993 1 3 cbr 210 ------- 0 1.1 3.0 15 165
r 1.15993 1 4 cbr 210 ------- 0 1.2 4.0 15 166
+ 1.16 1 3 cbr 210 ------- 0 1.1 3.0 16 177
- 1.16 1 3 cbr 210 ------- 0 1.1 3.0 16 177
+ 1.16 1 4 cbr 210 ------- 0 1.2 4.0 16 178
- 1.16 1 4 cbr 210 ------- 0 1.2 4.0 16 178
r 1.16118 0 1 cbr 210 ------- 0 0.0 1.0 42 170
+ 1.16125 0 1 cbr 210 ------- 0 0.0 1.0 43 179
- 1.16125 0 1 cbr 210 ------- 0 0.0 1.0 43 179
- 1.16272 0 2 tcp 1040 ------- 1 0.1 2.0 20 53
- 1.16288 2 5 tcp 1040 ------- 1 2.1 5.0 8 128
- 1.16288 2 6 tcp 1040 ------- 1 2.2 6.0 8 130
r 1.16368 1 3 cbr 210 ------- 0 1.1 3.0 16 177
r 1.16368 1 4 cbr 210 ------- 0 1.2 4.0 16 178
+ 1.16375 1 3 cbr 210 ------- 0 1.1 3.0 17 180
- 1.16375 1 3 cbr 210 ------- 0 1.1 3.0 17 180
+ 1.16375 1 4 cbr 210 ------- 0 1.2 4.0 17 181
- 1.16375 1 4 cbr 210 ------- 0 1.2 4.0 17 181
r 1.16472 0 2 tcp 1040 ------- 1 0.1 2.0 19 52
+ 1.16472 2 0 ack 40 ------- 1 2.0 0.1 19 182
- 1.16472 2 0 ack 40 ------- 1 2.0 0.1 19 182
r 1.16488 2 5 tcp 1040 ------- 1 2.1 5.0 7 127
+ 1.16488 5 2 ack 40 ------- 1 5.0 2.1 7 183
- 1.16488 5 2 ack 40 ------- 1 5.0 2.1 7 183
r 1.16488 2 6 tcp 1040 ------- 1 2.2 6.0 7 129
+ 1.16488 6 2 ack 40 ------- 1 6.0 2.2 7 184
- 1.16488 6 2 ack 40 ------- 1 6.0 2.2 7 184
r 1.16493 0 1 cbr 210 ------- 0 0.0 1.0 43 179
+ 1.165 0 1 cbr 210 ------- 0 0.0 1.0 44 185
- 1.165 0 1 cbr 210 ------- 0 0.0 1.0 44 185
r 1.16704 2 0 ack 40 ------- 1 2.0 0.1 19 182
+ 1.16704 0 2 tcp 1040 ------- 1 0.1 2.0 39 186
r 1.1672 5 2 ack 40 ------- 1 5.0 2.1 7 183
+ 1.1672 2 5 tcp 1040 ------- 1 2.1 5.0 15 187
+ 1.1672 2 5 tcp 1040 ------- 1 2.1 5.0 16 188
r 1.1672 6 2 ack 40 ------- 1 6.0 2.2 7 184
+ 1.1672 2 6 tcp 1040 ------- 1 2.2 6.0 15 189
+ 1.1672 2 6 tcp 1040 ------- 1 2.2 6.0 16 190
r 1.16743 1 3 cbr 210 ------- 0 1.1 3.0 17 180
r 1.16743 1 4 cbr 210 ------- 0 1.2 4.0 17 181
+ 1.1675 1 3 cbr 210 ------- 0 1.1 3.0 18 191
- 1.1675 1 3 cbr 210 ------- 0 1.1 3.0 18 191
+ 1.1675 1 4 cbr 210 ------- 0 1.2 4.0 18 192
- 1.1675 1 4 cbr 210 ------- 0 1.2 4.0 18 192
r 1.16868 0 1 cbr 210 ------- 0 0.0 1.0 44 185
+ 1.16875 0 1 cbr 210 ------- 0 0.0 1.0 45 193
- 1.16875 0 1 cbr 210 ------- 0 0.0 1.0 45 193
- 1.17104 0 2 tcp 1040 ------- 1 0.1 2.0 21 57
r 1.17118 1 3 cbr 210 ------- 0 1.1 3.0 18 191
r 1.17118 1 4 cbr 210 ------- 0 1.2 4.0 18 192
- 1.1712 2 5 tcp 1040 ------- 1 2.1 5.0 9 142
- 1.1712 2 6 tcp 1040 ------- 1 2.2 6.0 9 144
+ 1.17125 1 3 cbr 210 ------- 0 1.1 3.0 19 194
- 1.17125 1 3 cbr 210 ------- 0 1.1 3.0 19 194
+ 1.17125 1 4 cbr 210 ------- 0 1.2 4.0 19 195
- 1.17125 1 4 cbr 210 ------- 0 1.2 4.0 19 195
r 1.17243 0 1 cbr 210 ------- 0 0.0 1.0 45 193
+ 1.1725 0 1 cbr 210 ------- 0 0.0 1.0 46 196
- 1.1725 0 1 cbr 210 ------- 0 0.0 1.0 46 196
r 1.17304 0 2 tcp 1040 ------- 1 0.1 2.0 20 53
+ 1.17304 2 0 ack 40 ------- 1 2.0 0.1 20 197
- 1.17304 2 0 ack 40 ------- 1 2.0 0.1 20 197
r 1.1732 2 5 tcp 1040 ------- 1 2.1 5.0 8 128
+ 1.1732 5 2 ack 40 ------- 1 5.0 2.1 8 198
- 1.1732 5 2 ack 40 ------- 1 5.0 2.1 8 198
r 1.1732 2 6 tcp 1040 ------- 1 2.2 6.0 8 130
+ 1.1732 6 2 ack 40 ------- 1 6.0 2.2 8 199
- 1.1732 6 2 ack 40 ------- 1 6.0 2.2 8 199
r 1.17493 1 3 cbr 210 ------- 0 1.1 3.0 19 194
r 1.17493 1 4 cbr 210 ------- 0 1.2 4.0 19 195
+ 1.175 1 3 cbr 210 ------- 0 1.1 3.0 20 200
- 1.175 1 3 cbr 210 ------- 0 1.1 3.0 20 200
+ 1.175 1 4 cbr 210 ------- 0 1.2 4.0 20 201
- 1.175 1 4 cbr 210 ------- 0 1.2 4.0 20 201
r 1.17536 2 0 ack 40 ------- 1 2.0 0.1 20 197
+ 1.17536 0 2 tcp 1040 ------- 1 0.1 2.0 40 202
r 1.17552 5 2 ack 40 ------- 1 5.0 2.1 8 198
+ 1.17552 2 5 tcp 1040 ------- 1 2.1 5.0 17 203
+ 1.17552 2 5 tcp 1040 ------- 1 2.1 5.0 18 204
r 1.17552 6 2 ack 40 ------- 1 6.0 2.2 8 199
+ 1.17552 2 6 tcp 1040 ------- 1 2.2 6.0 17 205
+ 1.17552 2 6 tcp 1040 ------- 1 2.2 6.0 18 206
r 1.17618 0 1 cbr 210 ------- 0 0.0 1.0 46 196
+ 1.17625 0 1 cbr 210 ------- 0 0.0 1.0 47 207
- 1.17625 0 1 cbr 210 ------- 0 0.0 1.0 47 207
r 1.17868 1 3 cbr 210 ------- 0 1.1 3.0 20 200
r 1.17868 1 4 cbr 210 ------- 0 1.2 4.0 20 201
+ 1.17875 1 3 cbr 210 ------- 0 1.1 3.0 21 208
- 1.17875 1 3 cbr 210 ------- 0 1.1 3.0 21 208
+ 1.17875 1 4 cbr 210 ------- 0 1.2 4.0 21 209
- 1.17875 1 4 cbr 210 ------- 0 1.2 4.0 21 209
- 1.17936 0 2 tcp 1040 ------- 1 0.1 2.0 22 58
- 1.17952 2 5 tcp 1040 ------- 1 2.1 5.0 10 143
- 1.17952 2 6 tcp 1040 ------- 1 2.2 6.0 10 145
r 1.17993 0 1 cbr 210 ------- 0 0.0 1.0 47 207
+ 1.18 0 1 cbr 210 ------- 0 0.0 1.0 48 210
- 1.18 0 1 cbr 210 ------- 0 0.0 1.0 48 210
r 1.18136 0 2 tcp 1040 ------- 1 0.1 2.0 21 57
+ 1.18136 2 0 ack 40 ------- 1 2.0 0.1 21 211
- 1.18136 2 0 ack 40 ------- 1 2.0 0.1 21 211
r 1.18152 2 5 tcp 1040 ------- 1 2.1 5.0 9 142
+ 1.18152 5 2 ack 40 ------- 1 5.0 2.1 9 212
- 1.18152 5 2 ack 40 ------- 1 5.0 2.1 9 212
r 1.18152 2 6 tcp 1040 ------- 1 2.2 6.0 9 144
+ 1.18152 6 2 ack 40 ------- 1 6.0 2.2 9 213
- 1.18152 6 2 ack 40 ------- 1 6.0 2.2 9 213
r 1.18243 1 3 cbr 210 ------- 0 1.1 3.0 21 208
r 1.18243 1 4 cbr 210 ------- 0 1.2 4.0 21 209
+ 1.1825 1 3 cbr 210 ------- 0 1.1 3.0 22 214
- 1.1825 1 3 cbr 210 ------- 0 1.1 3.0 22 214
+ 1.1825 1 4 cbr 210 ------- 0 1.2 4.0 22 215
- 1.1825 1 4 cbr 210 ------- 0 1.2 4.0 22 215
r 1.18368 0 1 cbr 210 ------- 0 0.0 1.0 48 210
r 1.18368 2 0 ack 40 ------- 1 2.0 0.1 21 211
+ 1.18368 0 2 tcp 1040 ------- 1 0.1 2.0 41 216
+ 1.18375 0 1 cbr 210 ------- 0 0.0 1.0 49 217
- 1.18375 0 1 cbr 210 ------- 0 0.0 1.0 49 217
r 1.18384 5 2 ack 40 ------- 1 5.0 2.1 9 212
+ 1.18384 2 5 tcp 1040 ------- 1 2.1 5.0 19 218
+ 1.18384 2 5 tcp 1040 ------- 1 2.1 5.0 20 219
r 1.18384 6 2 ack 40 ------- 1 6.0 2.2 9 213
+ 1.18384 2 6 tcp 1040 ------- 1 2.2 6.0 19 220
+ 1.18384 2 6 tcp 1040 ------- 1 2.2 6.0 20 221
r 1.18618 1 3 cbr 210 ------- 0 1.1 3.0 22 214
r 1.18618 1 4 cbr 210 ------- 0 1.2 4.0 22 215
+ 1.18625 1 3 cbr 210 ------- 0 1.1 3.0 23 222
- 1.18625 1 3 cbr 210 ------- 0 1.1 3.0 23 222
+ 1.18625 1 4 cbr 210 ------- 0 1.2 4.0 23 223
- 1.18625 1 4 cbr 210 ------- 0 1.2 4.0 23 223
r 1.18743 0 1 cbr 210 ------- 0 0.0 1.0 49 217
+ 1.1875 0 1 cbr 210 ------- 0 0.0 1.0 50 224
- 1.1875 0 1 cbr 210 ------- 0 0.0 1.0 50 224
- 1.18768 0 2 tcp 1040 ------- 1 0.1 2.0 23 66
- 1.18784 2 5 tcp 1040 ------- 1 2.1 5.0 11 158
- 1.18784 2 6 tcp 1040 ------- 1 2.2 6.0 11 160
r 1.18968 0 2 tcp 1040 ------- 1 0.1 2.0 22 58
+ 1.18968 2 0 ack 40 ------- 1 2.0 0.1 22 225
- 1.18968 2 0 ack 40 ------- 1 2.0 0.1 22 225
r 1.18984 2 5 tcp 1040 ------- 1 2.1 5.0 10 143
+ 1.18984 5 2 ack 40 ------- 1 5.0 2.1 10 226
- 1.18984 5 2 ack 40 ------- 1 5.0 2.1 10 226
r 1.18984 2 6 tcp 1040 ------- 1 2.2 6.0 10 145
+ 1.18984 6 2 ack 40 ------- 1 6.0 2.2 10 227
- 1.18984 6 2 ack 40 ------- 1 6.0 2.2 10 227
r 1.18993 1 3 cbr 210 ------- 0 1.1 3.0 23 222
r 1.18993 1 4 cbr 210 ------- 0 1.2 4.0 23 223
+ 1.19 1 3 cbr 210 ------- 0 1.1 3.0 24 228
- 1.19 1 3 cbr 210 ------- 0 1.1 3.0 24 228
+ 1.19 1 4 cbr 210 ------- 0 1.2 4.0 24 229
- 1.19 1 4 cbr 210 ------- 0 1.2 4.0 24 229
r 1.19118 0 1 cbr 210 ------- 0 0.0 1.0 50 224
+ 1.19125 0 1 cbr 210 ------- 0 0.0 1.0 51 230
- 1.19125 0 1 cbr 210 ------- 0 0.0 1.0 51 230
r 1.192 2 0 ack 40 ------- 1 2.0 0.1 22 225
+ 1.192 0 2 tcp 1040 ------- 1 0.1 2.0 42 231
r 1.19216 5 2 ack 40 ------- 1 5.0 2.1 10 226
+ 1.19216 2 5 tcp 1040 ------- 1 2.1 5.0 21 232
+ 1.19216 2 5 tcp 1040 ------- 1 2.1 5.0 22 233
r 1.19216 6 2 ack 40 ------- 1 6.0 2.2 10 227
+ 1.19216 2 6 tcp 1040 ------- 1 2.2 6.0 21 234
+ 1.19216 2 6 tcp 1040 ------- 1 2.2 6.0 22 235
r 1.19368 1 3 cbr 210 ------- 0 1.1 3.0 24 228
r 1.19368 1 4 cbr 210 ------- 0 1.2 4.0 24 229
+ 1.19375 1 3 cbr 210 ------- 0 1.1 3.0 25 236
- 1.19375 1 3 cbr 210 ------- 0 1.1 3.0 25 236
+ 1.19375 1 4 cbr 210 ------- 0 1.2 4.0 25 237
- 1.19375 1 4 cbr 210 ------- 0 1.2 4.0 25 237
r 1.19493 0 1 cbr 210 ------- 0 0.0 1.0 51 230
+ 1.195 0 1 cbr 210 ------- 0 0.0 1.0 52 238
- 1.195 0 1 cbr 210 ------- 0 0.0 1.0 52 238
- 1.196 0 2 tcp 1040 ------- 1 0.1 2.0 24 67
- 1.19616 2 5 tcp 1040 ------- 1 2.1 5.0 12 159
- 1.19616 2 6 tcp 1040 ------- 1 2.2 6.0 12 161
r 1.19743 1 3 cbr 210 ------- 0 1.1 3.0 25 236
r 1.19743 1 4 cbr 210 ------- 0 1.2 4.0 25 237
+ 1.1975 1 3 cbr 210 ------- 0 1.1 3.0 26 239
- 1.1975 1 3 cbr 210 ------- 0 1.1 3.0 26 239
+ 1.1975 1 4 cbr 210 ------- 0 1.2 4.0 26 240
- 1.1975 1 4 cbr 210 ------- 0 1.2 4.0 26 240
r 1.198 0 2 tcp 1040 ------- 1 0.1 2.0 23 66
+ 1.198 2 0 ack 40 ------- 1 2.0 0.1 23 241
- 1.198 2 0 ack 40 ------- 1 2.0 0.1 23 241
r 1.19816 2 5 tcp 1040 ------- 1 2.1 5.0 11 158
+ 1.19816 5 2 ack 40 ------- 1 5.0 2.1 11 242
- 1.19816 5 2 ack 40 ------- 1 5.0 2.1 11 242
r 1.19816 2 6 tcp 1040 ------- 1 2.2 6.0 11 160
+ 1.19816 6 2 ack 40 ------- 1 6.0 2.2 11 243
- 1.19816 6 2 ack 40 ------- 1 6.0 2.2 11 243
r 1.19868 0 1 cbr 210 ------- 0 0.0 1.0 52 238
+ 1.19875 0 1 cbr 210 ------- 0 0.0 1.0 53 244
- 1.19875 0 1 cbr 210 ------- 0 0.0 1.0 53 244
r 1.20032 2 0 ack 40 ------- 1 2.0 0.1 23 241
+ 1.20032 0 2 tcp 1040 ------- 1 0.1 2.0 43 245
r 1.20048 5 2 ack 40 ------- 1 5.0 2.1 11 242
+ 1.20048 2 5 tcp 1040 ------- 1 2.1 5.0 23 246
+ 1.20048 2 5 tcp 1040 ------- 1 2.1 5.0 24 247
r 1.20048 6 2 ack 40 ------- 1 6.0 2.2 11 243