V -t * -v 1.0a5 -a 0
A -t * -n 1 -p 0 -o 0x7fffffff -c 30 -a 1
A -t * -h 1 -m 1073741823 -s 0
c -t * -i 0 -n blue
c -t * -i 1 -n red
n -t * -a 4 -s 4 -S UP -v circle -c black -i black
n -t * -a 0 -s 0 -S UP -v circle -c black -i black
n -t * -a 5 -s 5 -S UP -v circle -c black -i black
n -t * -a 1 -s 1 -S UP -v circle -c black -i black
n -t * -a 6 -s 6 -S UP -v circle -c black -i black
n -t * -a 2 -s 2 -S UP -v circle -c black -i black
n -t * -a 3 -s 3 -S UP -v circle -c black -i black
l -t * -s 0 -d 1 -S UP -r 1000000 -D 0.002 -c black -o left-down
l -t * -s 0 -d 2 -S UP -r 1000000 -D 0.002 -c black -o right-down
l -t * -s 1 -d 3 -S UP -r 1000000 -D 0.002 -c black -o left-down
l -t * -s 1 -d 4 -S UP -r 1000000 -D 0.002 -c black -o right-down
l -t * -s 2 -d 5 -S UP -r 1000000 -D 0.002 -c black -o left-down
l -t * -s 2 -d 6 -S UP -r 1000000 -D 0.002 -c black -o right-down
+ -t 1 -s 0 -d 1 -p cbr -e 210 -c 0 -i 0 -a 0 -x {0.0 1.0 0 ------- null}
- -t 1 -s 0 -d 1 -p cbr -e 210 -c 0 -i 0 -a 0 -x {0.0 1.0 0 ------- null}
h -t 1 -s 0 -d 1 -p cbr -e 210 -c 0 -i 0 -a 0 -x {0.0 1.0 -1 ------- null}
+ -t 1 -s 0 -d 2 -p tcp -e 40 -c 1 -i 1 -a 1 -x {0.1 2.0 0 ------- null}
- -t 1 -s 0 -d 2 -p tcp -e 40 -c 1 -i 1 -a 1 -x {0.1 2.0 0 ------- null}
h -t 1 -s 0 -d 2 -p tcp -e 40 -c 1 -i 1 -a 1 -x {0.1 2.0 -1 ------- null}
r -t 1.00232 -s 0 -d 2 -p tcp -e 40 -c 1 -i 1 -a 1 -x {0.1 2.0 0 ------- null}
+ -t 1.00232 -s 2 -d 0 -p ack -e 40 -c 1 -i 2 -a 1 -x {2.0 0.1 0 ------- null}
- -t 1.00232 -s 2 -d 0 -p ack -e 40 -c 1 -i 2 -a 1 -x {2.0 0.1 0 ------- null}
h -t 1.00232 -s 2 -d 0 -p ack -e 40 -c 1 -i 2 -a 1 -x {2.0 0.1 -1 ------- null}
r -t 1.00368 -s 0 -d 1 -p cbr -e 210 -c 0 -i 0 -a 0 -x {0.0 1.0 0 ------- null}
+ -t 1.00375 -s 0 -d 1 -p cbr -e 210 -c 0 -i 3 -a 0 -x {0.0 1.0 1 ------- null}
- -t 1.00375 -s 0 -d 1 -p cbr -e 210 -c 0 -i 3 -a 0 -x {0.0 1.0 1 ------- null}
h -t 1.00375 -s 0 -d 1 -p cbr -e 210 -c 0 -i 3 -a 0 -x {0.0 1.0 -1 ------- null}
r -t 1.00464 -s 2 -d 0 -p ack -e 40 -c 1 -i 2 -a 1 -x {2.0 0.1 0 ------- null}
+ -t 1.00464 -s 0 -d 2 -p tcp -e 1040 -c 1 -i 4 -a 1 -x {0.1 2.0 1 ------- null}
- -t 1.00464 -s 0 -d 2 -p tcp -e 1040 -c 1 -i 4 -a 1 -x {0.1 2.0 1 ------- null}
h -t 1.00464 -s 0 -d 2 -p tcp -e 1040 -c 1 -i 4 -a 1 -x {0.1 2.0 -1 ------- null}
+ -t 1.00464 -s 0 -d 2 -p tcp -e 1040 -c 1 -i 5 -a 1 -x {0.1 2.0 2 ------- null}
r -t 1.00743 -s 0 -d 1 -p cbr -e 210 -c 0 -i 3 -a 0 -x {0.0 1.0 1 ------- null}
+ -t 1.0075 -s 0 -d 1 -p cbr -e 210 -c 0 -i 6 -a 0 -x {0.0 1.0 2 ------- null}
- -t 1.0075 -s 0 -d 1 -p cbr -e 210 -c 0 -i 6 -a 0 -x {0.0 1.0 2 ------- null}
h -t 1.0075 -s 0 -d 1 -p cbr -e 210 -c 0 -i 6 -a 0 -x {0.0 1.0 -1 ------- null}
r -t 1.01118 -s 0 -d 1 -p cbr -e 210 -c 0 -i 6 -a 0 -x {0.0 1.0 2 ------- null}
+ -t 1.01125 -s 0 -d 1 -p cbr -e 210 -c 0 -i 7 -a 0 -x {0.0 1.0 3 ------- null}
- -t 1.01125 -s 0 -d 1 -p cbr -e 210 -c 0 -i 7 -a 0 -x {0.0 1.0 3 ------- null}
h -t 1.01125 -s 0 -d 1 -p cbr -e 210 -c 0 -i 7 -a 0 -x {0.0 1.0 -1 ------- null}
- -t 1.01296 -s 0 -d 2 -p tcp -e 1040 -c 1 -i 5 -a 1 -x {0.1 2.0 2 ------- null}
h -t 1.01296 -s 0 -d 2 -p tcp -e 1040 -c 1 -i 5 -a 1 -x {0.1 2.0 -1 ------- null}
r -t 1.01493 -s 0 -d 1 -p cbr -e 210 -c 0 -i 7 -a 0 -x {0.0 1.0 3 ------- null}
r -t 1.01496 -s 0 -d 2 -p tcp -e 1040 -c 1 -i 4 -a 1 -x {0.1 2.0 1 ------- null}
+ -t 1.01496 -s 2 -d 0 -p ack -e 40 -c 1 -i 8 -a 1 -x {2.0 0.1 1 ------- null}
- -t 1.01496 -s 2 -d 0 -p ack -e 40 -c 1 -i 8 -a 1 -x {2.0 0.1 1 ------- null}
h -t 1.01496 -s 2 -d 0 -p ack -e 40 -c 1 -i 8 -a 1 -x {2.0 0.1 -1 ------- null}
+ -t 1.015 -s 0 -d 1 -p cbr -e 210 -c 0 -i 9 -a 0 -x {0.0 1.0 4 ------- null}
- -t 1.015 -s 0 -d 1 -p cbr -e 210 -c 0 -i 9 -a 0 -x {0.0 1.0 4 ------- null}
h -t 1.015 -s 0 -d 1 -p cbr -e 210 -c 0 -i 9 -a 0 -x {0.0 1.0 -1 ------- null}
r -t 1.01728 -s 2 -d 0 -p ack -e 40 -c 1 -i 8 -a 1 -x {2.0 0.1 1 ------- null}
+ -t 1.01728 -s 0 -d 2 -p tcp -e 1040 -c 1 -i 10 -a 1 -x {0.1 2.0 3 ------- null}
+ -t 1.01728 -s 0 -d 2 -p tcp -e 1040 -c 1 -i 11 -a 1 -x {0.1 2.0 4 ------- null}
r -t 1.01868 -s 0 -d 1 -p cbr -e 210 -c 0 -i 9 -a 0 -x {0.0 1.0 4 ------- null}
+ -t 1.01875 -s 0 -d 1 -p cbr -e 210 -c 0 -i 12 -a 0 -x {0.0 1.0 5 ------- null}
- -t 1.01875 -s 0 -d 1 -p cbr -e 210 -c 0 -i 12 -a 0 -x {0.0 1.0 5 ------- null}
h -t 1.01875 -s 0 -d 1 -p cbr -e 210 -c 0 -i 12 -a 0 -x {0.0 1.0 -1 ------- null}
- -t 1.02128 -s 0 -d 2 -p tcp -e 1040 -c 1 -i 10 -a 1 -x {0.1 2.0 3 ------- null}
h -t 1.02128 -s 0 -d 2 -p tcp -e 1040 -c 1 -i 10 -a 1 -x {0.1 2.0 -1 ------- null}
r -t 1.02243 -s 0 -d 1 -p cbr -e 210 -c 0 -i 12 -a 0 -x {0.0 1.0 5 ------- null}
+ -t 1.0225 -s 0 -d 1 -p cbr -e 210 -c 0 -i 13 -a 0 -x {0.0 1.0 6 ------- null}
- -t 1.0225 -s 0 -d 1 -p cbr -e 210 -c 0 -i 13 -a 0 -x {0.0 1.0 6 ------- null}
h -t 1.0225 -s 0 -d 1 -p cbr -e 210 -c 0 -i 13 -a 0 -x {0.0 1.0 -1 ------- null}
r -t 1.02328 -s 0 -d 2 -p tcp -e 1040 -c 1 -i 5 -a 1 -x {0.1 2.0 2 ------- null}
+ -t 1.02328 -s 2 -d 0 -p ack -e 40 -c 1 -i 14 -a 1 -x {2.0 0.1 2 ------- null}
- -t 1.02328 -s 2 -d 0 -p ack -e 40 -c 1 -i 14 -a 1 -x {2.0 0.1 2 ------- null}
h -t 1.02328 -s 2 -d 0 -p ack -e 40 -c 1 -i 14 -a 1 -x {2.0 0.1 -1 ------- null}
r -t 1.0256 -s 2 -d 0 -p ack -e 40 -c 1 -i 14 -a 1 -x {2.0 0.1 2 ------- null}
+ -t 1.0256 -s 0 -d 2 -p tcp -e 1040 -c 1 -i 15 -a 1 -x {0.1 2.0 5 ------- null}
+ -t 1.0256 -s 0 -d 2 -p tcp -e 1040 -c 1 -i 16 -a 1 -x {0.1 2.0 6 ------- null}
r -t 1.02618 -s 0 -d 1 -p cbr -e 210 -c 0 -i 13 -a 0 -x {0.0 1.0 6 ------- null}
+ -t 1.02625 -s 0 -d 1 -p cbr -e 210 -c 0 -i 17 -a 0 -x {0.0 1.0 7 ------- null}
- -t 1.02625 -s 0 -d 1 -p cbr -e 210 -c 0 -i 17 -a 0 -x {0.0 1.0 7 ------- null}
h -t 1.02625 -s 0 -d 1 -p cbr -e 210 -c 0 -i 17 -a 0 -x {0.0 1.0 -1 ------- null}
- -t 1.0296 -s 0 -d 2 -p tcp -e 1040 -c 1 -i 11 -a 1 -x {0.1 2.0 4 ------- null}
h -t 1.0296 -s 0 -d 2 -p tcp -e 1040 -c 1 -i 11 -a 1 -x {0.1 2.0 -1 ------- null}
r -t 1.02993 -s 0 -d 1 -p cbr -e 210 -c 0 -i 17 -a 0 -x {0.0 1.0 7 ------- null}
+ -t 1.03 -s 0 -d 1 -p cbr -e 210 -c 0 -i 18 -a 0 -x {0.0 1.0 8 ------- null}
- -t 1.03 -s 0 -d 1 -p cbr -e 210 -c 0 -i 18 -a 0 -x {0.0 1.0 8 ------- null}
h -t 1.03 -s 0 -d 1 -p cbr -e 210 -c 0 -i 18 -a 0 -x {0.0 1.0 -1 ------- null}
r -t 1.0316 -s 0 -d 2 -p tcp -e 1040 -c 1 -i 10 -a 1 -x {0.1 2.0 3 ------- null}
+ -t 1.0316 -s 2 -d 0 -p ack -e 40 -c 1 -i 19 -a 1 -x {2.0 0.1 3 ------- null}
- -t 1.0316 -s 2 -d 0 -p ack -e 40 -c 1 -i 19 -a 1 -x {2.0 0.1 3 ------- null}
h -t 1.0316 -s 2 -d 0 -p ack -e 40 -c 1 -i 19 -a 1 -x {2.0 0.1 -1 ------- null}
r -t 1.03368 -s 0 -d 1 -p cbr -e 210 -c 0 -i 18 -a 0 -x {0.0 1.0 8 ------- null}
+ -t 1.03375 -s 0 -d 1 -p cbr -e 210 -c 0 -i 20 -a 0 -x {0.0 1.0 9 ------- null}
- -t 1.03375 -s 0 -d 1 -p cbr -e 210 -c 0 -i 20 -a 0 -x {0.0 1.0 9 ------- null}
h -t 1.03375 -s 0 -d 1 -p cbr -e 210 -c 0 -i 20 -a 0 -x {0.0 1.0 -1 ------- null}
r -t 1.03392 -s 2 -d 0 -p ack -e 40 -c 1 -i 19 -a 1 -x {2.0 0.1 3 ------- null}
+ -t 1.03392 -s 0 -d 2 -p tcp -e 1040 -c 1 -i 21 -a 1 -x {0.1 2.0 7 ------- null}
+ -t 1.03392 -s 0 -d 2 -p tcp -e 1040 -c 1 -i 22 -a 1 -x {0.1 2.0 8 ------- null}
r -t 1.03743 -s 0 -d 1 -p cbr -e 210 -c 0 -i 20 -a 0 -x {0.0 1.0 9 ------- null}
+ -t 1.0375 -s 0 -d 1 -p cbr -e 210 -c 0 -i 23 -a 0 -x {0.0 1.0 10 ------- null}
- -t 1.0375 -s 0 -d 1 -p cbr -e 210 -c 0 -i 23 -a 0 -x {0.0 1.0 10 ------- null}
h -t 1.0375 -s 0 -d 1 -p cbr -e 210 -c 0 -i 23 -a 0 -x {0.0 1.0 -1 ------- null}
- -t 1.03792 -s 0 -d 2 -p tcp -e 1040 -c 1 -i 15 -a 1 -x {0.1 2.0 5 ------- null}
h -t 1.03792 -s 0 -d 2 -p tcp -e 1040 -c 1 -i 15 -a 1 -x {0.1 2.0 -1 ------- null}
r -t 1.03992 -s 0 -d 2 -p tcp -e 1040 -c 1 -i 11 -a 1 -x {0.1 2.0 4 ------- null}
+ -t 1.03992 -s 2 -d 0 -p ack -e 40 -c 1 -i 24 -a 1 -x {2.0 0.1 4 ------- null}
- -t 1.03992 -s 2 -d 0 -p ack -e 40 -c 1 -i 24 -a 1 -x {2.0 0.1 4 ------- null}
h -t 1.03992 -s 2 -d 0 -p ack -e 40 -c 1 -i 24 -a 1 -x {2.0 0.1 -1 ------- null}
r -t 1.04118 -s 0 -d 1 -p cbr -e 210 -c 0 -i 23 -a 0 -x {0.0 1.0 10 ------- null}
+ -t 1.04125 -s 0 -d 1 -p cbr -e 210 -c 0 -i 25 -a 0 -x {0.0 1.0 11 ------- null}
- -t 1.04125 -s 0 -d 1 -p cbr -e 210 -c 0 -i 25 -a 0 -x {0.0 1.0 11 ------- null}
h -t 1.04125 -s 0 -d 1 -p cbr -e 210 -c 0 -i 25 -a 0 -x {0.0 1.0 -1 ------- null}
r -t 1.04224 -s 2 -d 0 -p ack -e 40 -c 1 -i 24 -a 1 -x {2.0 0.1 4 ------- null}
+ -t 1.04224 -s 0 -d 2 -p tcp -e 1040 -c 1 -i 26 -a 1 -x {0.1 2.0 9 ------- null}
+ -t 1.04224 -s 0 -d 2 -p tcp -e 1040 -c 1 -i 27 -a 1 -x {0.1 2.0 10 ------- null}
r -t 1.04493 -s 0 -d 1 -p cbr -e 210 -c 0 -i 25 -a 0 -x {0.0 1.0 11 ------- null}
+ -t 1.045 -s 0 -d 1 -p cbr -e 210 -c 0 -i 28 -a 0 -x {0.0 1.0 12 ------- null}
- -t 1.045 -s 0 -d 1 -p cbr -e 210 -c 0 -i 28 -a 0 -x {0.0 1.0 12 ------- null}
h -t 1.045 -s 0 -d 1 -p cbr -e 210 -c 0 -i 28 -a 0 -x {0.0 1.0 -1 ------- null}
- -t 1.04624 -s 0 -d 2 -p tcp -e 1040 -c 1 -i 16 -a 1 -x {0.1 2.0 6 ------- null}
h -t 1.04624 -s 0 -d 2 -p tcp -e 1040 -c 1 -i 16 -a 1 -x {0.1 2.0 -1 ------- null}
r -t 1.04824 -s 0 -d 2 -p tcp -e 1040 -c 1 -i 15 -a 1 -x {0.1 2.0 5 ------- null}
+ -t 1.04824 -s 2 -d 0 -p ack -e 40 -c 1 -i 29 -a 1 -x {2.0 0.1 5 ------- null}
- -t 1.04824 -s 2 -d 0 -p ack -e 40 -c 1 -i 29 -a 1 -x {2.0 0.1 5 ------- null}
h -t 1.04824 -s 2 -d 0 -p ack -e 40 -c 1 -i 29 -a 1 -x {2.0 0.1 -1 ------- null}
r -t 1.04868 -s 0 -d 1 -p cbr -e 210 -c 0 -i 28 -a 0 -x {0.0 1.0 12 ------- null}
+ -t 1.04875 -s 0 -d 1 -p cbr -e 210 -c 0 -i 30 -a 0 -x {0.0 1.0 13 ------- null}
- -t 1.04875 -s 0 -d 1 -p cbr -e 210 -c 0 -i 30 -a 0 -x {0.0 1.0 13 ------- null}
h -t 1.04875 -s 0 -d 1 -p cbr -e 210 -c 0 -i 30 -a 0 -x {0.0 1.0 -1 ------- null}
r -t 1.05056 -s 2 -d 0 -p ack -e 40 -c 1 -i 29 -a 1 -x {2.0 0.1 5 ------- null}
+ -t 1.05056 -s 0 -d 2 -p tcp -e 1040 -c 1 -i 31 -a 1 -x {0.1 2.0 11 ------- null}
+ -t 1.05056 -s 0 -d 2 -p tcp -e 1040 -c 1 -i 32 -a 1 -x {0.1 2.0 12 ------- null}
r -t 1.05243 -s 0 -d 1 -p cbr -e 210 -c 0 -i 30 -a 0 -x {0.0 1.0 13 ------- null}
+ -t 1.0525 -s 0 -d 1 -p cbr -e 210 -c 0 -i 33 -a 0 -x {0.0 1.0 14 ------- null}
- -t 1.0525 -s 0 -d 1 -p cbr -e 210 -c 0 -i 33 -a 0 -x {0.0 1.0 14 ------- null}
h -t 1.0525 -s 0 -d 1 -p cbr -e 210 -c 0 -i 33 -a 0 -x {0.0 1.0 -1 ------- null}
- -t 1.05456 -s 0 -d 2 -p tcp -e 1040 -c 1 -i 21 -a 1 -x {0.1 2.0 7 ------- null}
h -t 1.05456 -s 0 -d 2 -p tcp -e 1040 -c 1 -i 21 -a 1 -x {0.1 2.0 -1 ------- null}
r -t 1.05618 -s 0 -d 1 -p cbr -e 210 -c 0 -i 33 -a 0 -x {0.0 1.0 14 ------- null}
+ -t 1.05625 -s 0 -d 1 -p cbr -e 210 -c 0 -i 34 -a 0 -x {0.0 1.0 15 ------- null}
- -t 1.05625 -s 0 -d 1 -p cbr -e 210 -c 0 -i 34 -a 0 -x {0.0 1.0 15 ------- null}
h -t 1.05625 -s 0 -d 1 -p cbr -e 210 -c 0 -i 34 -a 0 -x {0.0 1.0 -1 ------- null}
r -t 1.05656 -s 0 -d 2 -p tcp -e 1040 -c 1 -i 16 -a 1 -x {0.1 2.0 6 ------- null}
+ -t 1.05656 -s 2 -d 0 -p ack -e 40 -c 1 -i 35 -a 1 -x {2.0 0.1 6 ------- null}
- -t 1.05656 -s 2 -d 0 -p ack -e 40 -c 1 -i 35 -a 1 -x {2.0 0.1 6 ------- null}
h -t 1.05656 -s 2 -d 0 -p ack -e 40 -c 1 -i 35 -a 1 -x {2.0 0.1 -1 ------- null}
r -t 1.05888 -s 2 -d 0 -p ack -e 40 -c 1 -i 35 -a 1 -x {2.0 0.1 6 ------- null}
+ -t 1.05888 -s 0 -d 2 -p tcp -e 1040 -c 1 -i 36 -a 1 -x {0.1 2.0 13 ------- null}
+ -t 1.05888 -s 0 -d 2 -p tcp -e 1040 -c 1 -i 37 -a 1 -x {0.1 2.0 14 ------- null}
r -t 1.05993 -s 0 -d 1 -p cbr -e 210 -c 0 -i 34 -a 0 -x {0.0 1.0 15 ------- null}
+ -t 1.06 -s 0 -d 1 -p cbr -e 210 -c 0 -i 38 -a 0 -x {0.0 1.0 16 ------- null}
- -t 1.06 -s 0 -d 1 -p cbr -e 210 -c 0 -i 38 -a 0 -x {0.0 1.0 16 ------- null}
h -t 1.06 -s 0 -d 1 -p cbr -e 210 -c 0 -i 38 -a 0 -x {0.0 1.0 -1 ------- null}
- -t 1.06288 -s 0 -d 2 -p tcp -e 1040 -c 1 -i 22 -a 1 -x {0.1 2.0 8 ------- null}
h -t 1.06288 -s 0 -d 2 -p tcp -e 1040 -c 1 -i 22 -a 1 -x {0.1 2.0 -1 ------- null}
r -t 1.06368 -s 0 -d 1 -p cbr -e 210 -c 0 -i 38 -a 0 -x {0.0 1.0 16 ------- null}
+ -t 1.06375 -s 0 -d 1 -p cbr -e 210 -c 0 -i 39 -a 0 -x {0.0 1.0 17 ------- null}
- -t 1.06375 -s 0 -d 1 -p cbr -e 210 -c 0 -i 39 -a 0 -x {0.0 1.0 17 ------- null}
h -t 1.06375 -s 0 -d 1 -p cbr -e 210 -c 0 -i 39 -a 0 -x {0.0 1.0 -1 ------- null}
r -t 1.06488 -s 0 -d 2 -p tcp -e 1040 -c 1 -i 21 -a 1 -x {0.1 2.0 7 ------- null}
+ -t 1.06488 -s 2 -d 0 -p ack -e 40 -c 1 -i 40 -a 1 -x {2.0 0.1 7 ------- null}
- -t 1.06488 -s 2 -d 0 -p ack -e 40 -c 1 -i 40 -a 1 -x {2.0 0.1 7 ------- null}
h -t 1.06488 -s 2 -d 0 -p ack -e 40 -c 1 -i 40 -a 1 -x {2.0 0.1 -1 ------- null}
r -t 1.0672 -s 2 -d 0 -p ack -e 40 -c 1 -i 40 -a 1 -x {2.0 0.1 7 ------- null}
+ -t 1.0672 -s 0 -d 2 -p tcp -e 1040 -c 1 -i 41 -a 1 -x {0.1 2.0 15 ------- null}
+ -t 1.0672 -s 0 -d 2 -p tcp -e 1040 -c 1 -i 42 -a 1 -x {0.1 2.0 16 ------- null}
r -t 1.06743 -s 0 -d 1 -p cbr -e 210 -c 0 -i 39 -a 0 -x {0.0 1.0 17 ------- null}
+ -t 1.0675 -s 0 -d 1 -p cbr -e 210 -c 0 -i 43 -a 0 -x {0.0 1.0 18 ------- null}
- -t 1.0675 -s 0 -d 1 -p cbr -e 210 -c 0 -i 43 -a 0 -x {0.0 1.0 18 ------- null}
h -t 1.0675 -s 0 -d 1 -p cbr -e 210 -c 0 -i 43 -a 0 -x {0.0 1.0 -1 ------- null}
r -t 1.07118 -s 0 -d 1 -p cbr -e 210 -c 0 -i 43 -a 0 -x {0.0 1.0 18 ------- null}
- -t 1.0712 -s 0 -d 2 -p tcp -e 1040 -c 1 -i 26 -a 1 -x {0.1 2.0 9 ------- null}
h -t 1.0712 -s 0 -d 2 -p tcp -e 1040 -c 1 -i 26 -a 1 -x {0.1 2.0 -1 ------- null}
+ -t 1.07125 -s 0 -d 1 -p cbr -e 210 -c 0 -i 44 -a 0 -x {0.0 1.0 19 ------- null}
- -t 1.07125 -s 0 -d 1 -p cbr -e 210 -c 0 -i 44 -a 0 -x {0.0 1.0 19 ------- null}
h -t 1.07125 -s 0 -d 1 -p cbr -e 210 -c 0 -i 44 -a 0 -x {0.0 1.0 -1 ------- null}
r -t 1.0732 -s 0 -d 2 -p tcp -e 1040 -c 1 -i 22 -a 1 -x {0.1 2.0 8 ------- null}
+ -t 1.0732 -s 2 -d 0 -p ack -e 40 -c 1 -i 45 -a 1 -x {2.0 0.1 8 ------- null}
- -t 1.0732 -s 2 -d 0 -p ack -e 40 -c 1 -i 45 -a 1 -x {2.0 0.1 8 ------- null}
h -t 1.0732 -s 2 -d 0 -p ack -e 40 -c 1 -i 45 -a 1 -x {2.0 0.1 -1 ------- null}
r -t 1.07493 -s 0 -d 1 -p cbr -e 210 -c 0 -i 44 -a 0 -x {0.0 1.0 19 ------- null}
+ -t 1.075 -s 0 -d 1 -p cbr -e 210 -c 0 -i 46 -a 0 -x {0.0 1.0 20 ------- null}
- -t 1.075 -s 0 -d 1 -p cbr -e 210 -c 0 -i 46 -a 0 -x {0.0 1.0 20 ------- null}
h -t 1.075 -s 0 -d 1 -p cbr -e 210 -c 0 -i 46 -a 0 -x {0.0 1.0 -1 ------- null}
r -t 1.07552 -s 2 -d 0 -p ack -e 40 -c 1 -i 45 -a 1 -x {2.0 0.1 8 ------- null}
+ -t 1.07552 -s 0 -d 2 -p tcp -e 1040 -c 1 -i 47 -a 1 -x {0.1 2.0 17 ------- null}
+ -t 1.07552 -s 0 -d 2 -p tcp -e 1040 -c 1 -i 48 -a 1 -x {0.1 2.0 18 ------- null}
r -t 1.07868 -s 0 -d 1 -p cbr -e 210 -c 0 -i 46 -a 0 -x {0.0 1.0 20 ------- null}
+ -t 1.07875 -s 0 -d 1 -p cbr -e 210 -c 0 -i 49 -a 0 -x {0.0 1.0 21 ------- null}
- -t 1.07875 -s 0 -d 1 -p cbr -e 210 -c 0 -i 49 -a 0 -x {0.0 1.0 21 ------- null}
h -t 1.07875 -s 0 -d 1 -p cbr -e 210 -c 0 -i 49 -a 0 -x {0.0 1.0 -1 ------- null}
- -t 1.07952 -s 0 -d 2 -p tcp -e 1040 -c 1 -i 27 -a 1 -x {0.1 2.0 10 ------- null}
h -t 1.07952 -s 0 -d 2 -p tcp -e 1040 -c 1 -i 27 -a 1 -x {0.1 2.0 -1 ------- null}
r -t 1.08152 -s 0 -d 2 -p tcp -e 1040 -c 1 -i 26 -a 1 -x {0.1 2.0 9 ------- null}
+ -t 1.08152 -s 2 -d 0 -p ack -e 40 -c 1 -i 50 -a 1 -x {2.0 0.1 9 ------- null}
- -t 1.08152 -s 2 -d 0 -p ack -e 40 -c 1 -i 50 -a 1 -x {2.0 0.1 9 ------- null}
h -t 1.08152 -s 2 -d 0 -p ack -e 40 -c 1 -i 50 -a 1 -x {2.0 0.1 -1 ------- null}
r -t 1.08243 -s 0 -d 1 -p cbr -e 210 -c 0 -i 49 -a 0 -x {0.0 1.0 21 ------- null}
+ -t 1.0825 -s 0 -d 1 -p cbr -e 210 -c 0 -i 51 -a 0 -x {0.0 1.0 22 ------- null}
- -t 1.0825 -s 0 -d 1 -p cbr -e 210 -c 0 -i 51 -a 0 -x {0.0 1.0 22 ------- null}
h -t 1.0825 -s 0 -d 1 -p cbr -e 210 -c 0 -i 51 -a 0 -x {0.0 1.0 -1 ------- null}
r -t 1.08384 -s 2 -d 0 -p ack -e 40 -c 1 -i 50 -a 1 -x {2.0 0.1 9 ------- null}
+ -t 1.08384 -s 0 -d 2 -p tcp -e 1040 -c 1 -i 52 -a 1 -x {0.1 2.0 19 ------- null}
+ -t 1.08384 -s 0 -d 2 -p tcp -e 1040 -c 1 -i 53 -a 1 -x {0.1 2.0 20 ------- null}
r -t 1.08618 -s 0 -d 1 -p cbr -e 210 -c 0 -i 51 -a 0 -x {0.0 1.0 22 ------- null}
+ -t 1.08625 -s 0 -d 1 -p cbr -e 210 -c 0 -i 54 -a 0 -x {0.0 1.0 23 ------- null}
- -t 1.08625 -s 0 -d 1 -p cbr -e 210 -c 0 -i 54 -a 0 -x {0.0 1.0 23 ------- null}
h -t 1.08625 -s 0 -d 1 -p cbr -e 210 -c 0 -i 54 -a 0 -x {0.0 1.0 -1 ------- null}
- -t 1.08784 -s 0 -d 2 -p tcp -e 1040 -c 1 -i 31 -a 1 -x {0.1 2.0 11 ------- null}
h -t 1.08784 -s 0 -d 2 -p tcp -e 1040 -c 1 -i 31 -a 1 -x {0.1 2.0 -1 ------- null}
r -t 1.08984 -s 0 -d 2 -p tcp -e 1040 -c 1 -i 27 -a 1 -x {0.1 2.0 10 ------- null}
+ -t 1.08984 -s 2 -d 0 -p ack -e 40 -c 1 -i 55 -a 1 -x {2.0 0.1 10 ------- null}
- -t 1.08984 -s 2 -d 0 -p ack -e 40 -c 1 -i 55 -a 1 -x {2.0 0.1 10 ------- null}
h -t 1.08984 -s 2 -d 0 -p ack -e 40 -c 1 -i 55 -a 1 -x {2.0 0.1 -1 ------- null}
r -t 1.08993 -s 0 -d 1 -p cbr -e 210 -c 0 -i 54 -a 0 -x {0.0 1.0 23 ------- null}
+ -t 1.09 -s 0 -d 1 -p cbr -e 210 -c 0 -i 56 -a 0 -x {0.0 1.0 24 ------- null}
- -t 1.09 -s 0 -d 1 -p cbr -e 210 -c 0 -i 56 -a 0 -x {0.0 1.0 24 ------- null}
h -t 1.09 -s 0 -d 1 -p cbr -e 210 -c 0 -i 56 -a 0 -x {0.0 1.0 -1 ------- null}
r -t 1.09216 -s 2 -d 0 -p ack -e 40 -c 1 -i 55 -a 1 -x {2.0 0.1 10 ------- null}
+ -t 1.09216 -s 0 -d 2 -p tcp -e 1040 -c 1 -i 57 -a 1 -x {0.1 2.0 21 ------- null}
+ -t 1.09216 -s 0 -d 2 -p tcp -e 1040 -c 1 -i 58 -a 1 -x {0.1 2.0 22 ------- null}
r -t 1.09368 -s 0 -d 1 -p cbr -e 210 -c 0 -i 56 -a 0 -x {0.0 1.0 24 ------- null}
+ -t 1.09375 -s 0 -d 1 -p cbr -e 210 -c 0 -i 59 -a 0 -x {0.0 1.0 25 ------- null}
- -t 1.09375 -s 0 -d 1 -p cbr -e 210 -c 0 -i 59 -a 0 -x {0.0 1.0 25 ------- null}
h -t 1.09375 -s 0 -d 1 -p cbr -e 210 -c 0 -i 59 -a 0 -x {0.0 1.0 -1 ------- null}
- -t 1.09616 -s 0 -d 2 -p tcp -e 1040 -c 1 -i 32 -a 1 -x {0.1 2.0 12 ------- null}
h -t 1.09616 -s 0 -d 2 -p tcp -e 1040 -c 1 -i 32 -a 1 -x {0.1 2.0 -1 ------- null}
r -t 1.09743 -s 0 -d 1 -p cbr -e 210 -c 0 -i 59 -a 0 -x {0.0 1.0 25 ------- null}
+ -t 1.0975 -s 0 -d 1 -p cbr -e 210 -c 0 -i 60 -a 0 -x {0.0 1.0 26 ------- null}
- -t 1.0975 -s 0 -d 1 -p cbr -e 210 -c 0 -i 60 -a 0 -x {0.0 1.0 26 ------- null}
h -t 1.0975 -s 0 -d 1 -p cbr -e 210 -c 0 -i 60 -a 0 -x {0.0 1.0 -1 ------- null}
r -t 1.09816 -s 0 -d 2 -p tcp -e 1040 -c 1 -i 31 -a 1 -x {0.1 2.0 11 ------- null}
+ -t 1.09816 -s 2 -d 0 -p ack -e 40 -c 1 -i 61 -a 1 -x {2.0 0.1 11 ------- null}
- -t 1.09816 -s 2 -d 0 -p ack -e 40 -c 1 -i 61 -a 1 -x {2.0 0.1 11 ------- null}
h -t 1.09816 -s 2 -d 0 -p ack -e 40 -c 1 -i 61 -a 1 -x {2.0 0.1 -1 ------- null}
+ -t 1.1 -s 1 -d 3 -p cbr -e 210 -c 0 -i 62 -a 0 -x {1.1 3.0 0 ------- null}
- -t 1.1 -s 1 -d 3 -p cbr -e 210 -c 0 -i 62 -a 0 -x {1.1 3.0 0 ------- null}
h -t 1.1 -s 1 -d 3 -p cbr -e 210 -c 0 -i 62 -a 0 -x {1.1 3.0 -1 ------- null}
+ -t 1.1 -s 1 -d 4 -p cbr -e 210 -c 0 -i 63 -a 0 -x {1.2 4.0 0 ------- null}
- -t 1.1 -s 1 -d 4 -p cbr -e 210 -c 0 -i 63 -a 0 -x {1.2 4.0 0 ------- null}
h -t 1.1 -s 1 -d 4 -p cbr -e 210 -c 0 -i 63 -a 0 -x {1.2 4.0 -1 ------- null}
+ -t 1.1 -s 2 -d 5 -p tcp -e 40 -c 1 -i 64 -a 1 -x {2.1 5.0 0 ------- null}
- -t 1.1 -s 2 -d 5 -p tcp -e 40 -c 1 -i 64 -a 1 -x {2.1 5.0 0 ------- null}
h -t 1.1 -s 2 -d 5 -p tcp -e 40 -c 1 -i 64 -a 1 -x {2.1 5.0 -1 ------- null}
+ -t 1.1 -s 2 -d 6 -p tcp -e 40 -c 1 -i 65 -a 1 -x {2.2 6.0 0 ------- null}
- -t 1.1 -s 2 -d 6 -p tcp -e 40 -c 1 -i 65 -a 1 -x {2.2 6.0 0 ------- null}
h -t 1.1 -s 2 -d 6 -p tcp -e 40 -c 1 -i 65 -a 1 -x {2.2 6.0 -1 ------- null}
r -t 1.10048 -s 2 -d 0 -p ack -e 40 -c 1 -i 61 -a 1 -x {2.0 0.1 11 ------- null}
+ -t 1.10048 -s 0 -d 2 -p tcp -e 1040 -c 1 -i 66 -a 1 -x {0.1 2.0 23 ------- null}
+ -t 1.10048 -s 0 -d 2 -p tcp -e 1040 -c 1 -i 67 -a 1 -x {0.1 2.0 24 ------- null}
r -t 1.10118 -s 0 -d 1 -p cbr -e 210 -c 0 -i 60 -a 0 -x {0.0 1.0 26 ------- null}
+ -t 1.10125 -s 0 -d 1 -p cbr -e 210 -c 0 -i 68 -a 0 -x {0.0 1.0 27 ------- null}
- -t 1.10125 -s 0 -d 1 -p cbr -e 210 -c 0 -i 68 -a 0 -x {0.0 1.0 27 ------- null}
h -t 1.10125 -s 0 -d 1 -p cbr -e 210 -c 0 -i 68 -a 0 -x {0.0 1.0 -1 ------- null}
r -t 1.10232 -s 2 -d 5 -p tcp -e 40 -c 1 -i 64 -a 1 -x {2.1 5.0 0 ------- null}
+ -t 1.10232 -s 5 -d 2 -p ack -e 40 -c 1 -i 69 -a 1 -x {5.0 2.1 0 ------- null}
- -t 1.10232 -s 5 -d 2 -p ack -e 40 -c 1 -i 69 -a 1 -x {5.0 2.1 0 ------- null}
h -t 1.10232 -s 5 -d 2 -p ack -e 40 -c 1 -i 69 -a 1 -x {5.0 2.1 -1 ------- null}
r -t 1.10232 -s 2 -d 6 -p tcp -e 40 -c 1 -i 65 -a 1 -x {2.2 6.0 0 ------- null}
+ -t 1.10232 -s 6 -d 2 -p ack -e 40 -c 1 -i 70 -a 1 -x {6.0 2.2 0 ------- null}
- -t 1.10232 -s 6 -d 2 -p ack -e 40 -c 1 -i 70 -a 1 -x {6.0 2.2 0 ------- null}
h -t 1.10232 -s 6 -d 2 -p ack -e 40 -c 1 -i 70 -a 1 -x {6.0 2.2 -1 ------- null}
r -t 1.10368 -s 1 -d 3 -p cbr -e 210 -c 0 -i 62 -a 0 -x {1.1 3.0 0 ------- null}
r -t 1.10368 -s 1 -d 4 -p cbr -e 210 -c 0 -i 63 -a 0 -x {1.2 4.0 0 ------- null}
+ -t 1.10375 -s 1 -d 3 -p cbr -e 210 -c 0 -i 71 -a 0 -x {1.1 3.0 1 ------- null}
- -t 1.10375 -s 1 -d 3 -p cbr -e 210 -c 0 -i 71 -a 0 -x {1.1 3.0 1 ------- null}
h -t 1.10375 -s 1 -d 3 -p cbr -e 210 -c 0 -i 71 -a 0 -x {1.1 3.0 -1 ------- null}
+ -t 1.10375 -s 1 -d 4 -p cbr -e 210 -c 0 -i 72 -a 0 -x {1.2 4.0 1 ------- null}
- -t 1.10375 -s 1 -d 4 -p cbr -e 210 -c 0 -i 72 -a 0 -x {1.2 4.0 1 ------- null}
h -t 1.10375 -s 1 -d 4 -p cbr -e 210 -c 0 -i 72 -a 0 -x {1.2 4.0 -1 ------- null}
- -t 1.10448 -s 0 -d 2 -p tcp -e 1040 -c 1 -i 36 -a 1 -x {0.1 2.0 13 ------- null}
h -t 1.10448 -s 0 -d 2 -p tcp -e 1040 -c 1 -i 36 -a 1 -x {0.1 2.0 -1 ------- null}
r -t 1.10464 -s 5 -d 2 -p ack -e 40 -c 1 -i 69 -a 1 -x {5.0 2.1 0 ------- null}
+ -t 1.10464 -s 2 -d 5 -p tcp -e 1040 -c 1 -i 73 -a 1 -x {2.1 5.0 1 ------- null}
- -t 1.10464 -s 2 -d 5 -p tcp -e 1040 -c 1 -i 73 -a 1 -x {2.1 5.0 1 ------- null}
h -t 1.10464 -s 2 -d 5 -p tcp -e 1040 -c 1 -i 73 -a 1 -x {2.1 5.0 -1 ------- null}
+ -t 1.10464 -s 2 -d 5 -p tcp -e 1040 -c 1 -i 74 -a 1 -x {2.1 5.0 2 ------- null}
r -t 1.10464 -s 6 -d 2 -p ack -e 40 -c 1 -i 70 -a 1 -x {6.0 2.2 0 ------- null}
+ -t 1.10464 -s 2 -d 6 -p tcp -e 1040 -c 1 -i 75 -a 1 -x {2.2 6.0 1 ------- null}
- -t 1.10464 -s 2 -d 6 -p tcp -e 1040 -c 1 -i 75 -a 1 -x {2.2 6.0 1 ------- null}
h -t 1.10464 -s 2 -d 6 -p tcp -e 1040 -c 1 -i 75 -a 1 -x {2.2 6.0 -1 ------- null}
+ -t 1.10464 -s 2 -d 6 -p tcp -e 1040 -c 1 -i 76 -a 1 -x {2.2 6.0 2 ------- null}
r -t 1.10493 -s 0 -d 1 -p cbr -e 210 -c 0 -i 68 -a 0 -x {0.0 1.0 27 ------- null}
+ -t 1.105 -s 0 -d 1 -p cbr -e 210 -c 0 -i 77 -a 0 -x {0.0 1.0 28 ------- null}
- -t 1.105 -s 0 -d 1 -p cbr -e 210 -c 0 -i 77 -a 0 -x {0.0 1.0 28 ------- null}
h -t 1.105 -s 0 -d 1 -p cbr -e 210 -c 0 -i 77 -a 0 -x {0.0 1.0 -1 ------- null}
r -t 1.10648 -s 0 -d 2 -p tcp -e 1040 -c 1 -i 32 -a 1 -x {0.1 2.0 12 ------- null}
+ -t 1.10648 -s 2 -d 0 -p ack -e 40 -c 1 -i 78 -a 1 -x {2.0 0.1 12 ------- null}
- -t 1.10648 -s 2 -d 0 -p ack -e 40 -c 1 -i 78 -a 1 -x {2.0 0.1 12 ------- null}
h -t 1.10648 -s 2 -d 0 -p ack -e 40 -c 1 -i 78 -a 1 -x {2.0 0.1 -1 ------- null}
r -t 1.10743 -s 1 -d 3 -p cbr -e 210 -c 0 -i 71 -a 0 -x {1.1 3.0 1 ------- null}
r -t 1.10743 -s 1 -d 4 -p cbr -e 210 -c 0 -i 72 -a 0 -x {1.2 4.0 1 ------- null}
+ -t 1.1075 -s 1 -d 3 -p cbr -e 210 -c 0 -i 79 -a 0 -x {1.1 3.0 2 ------- null}
- -t 1.1075 -s 1 -d 3 -p cbr -e 210 -c 0 -i 79 -a 0 -x {1.1 3.0 2 ------- null}
h -t 1.1075 -s 1 -d 3 -p cbr -e 210 -c 0 -i 79 -a 0 -x {1.1 3.0 -1 ------- null}
+ -t 1.1075 -s 1 -d 4 -p cbr -e 210 -c 0 -i 80 -a 0 -x {1.2 4.0 2 ------- null}
- -t 1.1075 -s 1 -d 4 -p cbr -e 210 -c 0 -i 80 -a 0 -x {1.2 4.0 2 ------- null}
h -t 1.1075 -s 1 -d 4 -p cbr -e 210 -c 0 -i 80 -a 0 -x {1.2 4.0 -1 ------- null}
r -t 1.10868 -s 0 -d 1 -p cbr -e 210 -c 0 -i 77 -a 0 -x {0.0 1.0 28 ------- null}
+ -t 1.10875 -s 0 -d 1 -p cbr -e 210 -c 0 -i 81 -a 0 -x {0.0 1.0 29 ------- null}
- -t 1.10875 -s 0 -d 1 -p cbr -e 210 -c 0 -i 81 -a 0 -x {0.0 1.0 29 ------- null}
h -t 1.10875 -s 0 -d 1 -p cbr -e 210 -c 0 -i 81 -a 0 -x {0.0 1.0 -1 ------- null}
r -t 1.1088 -s 2 -d 0 -p ack -e 40 -c 1 -i 78 -a 1 -x {2.0 0.1 12 ------- null}
+ -t 1.1088 -s 0 -d 2 -p tcp -e 1040 -c 1 -i 82 -a 1 -x {0.1 2.0 25 ------- null}
+ -t 1.1088 -s 0 -d 2 -p tcp -e 1040 -c 1 -i 83 -a 1 -x {0.1 2.0 26 ------- null}
r -t 1.11118 -s 1 -d 3 -p cbr -e 210 -c 0 -i 79 -a 0 -x {1.1 3.0 2 ------- null}
r -t 1.11118 -s 1 -d 4 -p cbr -e 210 -c 0 -i 80 -a 0 -x {1.2 4.0 2 ------- null}
+ -t 1.11125 -s 1 -d 3 -p cbr -e 210 -c 0 -i 84 -a 0 -x {1.1 3.0 3 ------- null}
- -t 1.11125 -s 1 -d 3 -p cbr -e 210 -c 0 -i 84 -a 0 -x {1.1 3.0 3 ------- null}
h -t 1.11125 -s 1 -d 3 -p cbr -e 210 -c 0 -i 84 -a 0 -x {1.1 3.0 -1 ------- null}
+ -t 1.11125 -s 1 -d 4 -p cbr -e 210 -c 0 -i 85 -a 0 -x {1.2 4.0 3 ------- null}
- -t 1.11125 -s 1 -d 4 -p cbr -e 210 -c 0 -i 85 -a 0 -x {1.2 4.0 3 ------- null}
h -t 1.11125 -s 1 -d 4 -p cbr -e 210 -c 0 -i 85 -a 0 -x {1.2 4.0 -1 ------- null}
r -t 1.11243 -s 0 -d 1 -p cbr -e 210 -c 0 -i 81 -a 0 -x {0.0 1.0 29 ------- null}
+ -t 1.1125 -s 0 -d 1 -p cbr -e 210 -c 0 -i 86 -a 0 -x {0.0 1.0 30 ------- null}
- -t 1.1125 -s 0 -d 1 -p cbr -e 210 -c 0 -i 86 -a 0 -x {0.0 1.0 30 ------- null}
h -t 1.1125 -s 0 -d 1 -p cbr -e 210 -c 0 -i 86 -a 0 -x {0.0 1.0 -1 ------- null}
- -t 1.1128 -s 0 -d 2 -p tcp -e 1040 -c 1 -i 37 -a 1 -x {0.1 2.0 14 ------- null}
h -t 1.1128 -s 0 -d 2 -p tcp -e 1040 -c 1 -i 37 -a 1 -x {0.1 2.0 -1 ------- null}
- -t 1.11296 -s 2 -d 5 -p tcp -e 1040 -c 1 -i 74 -a 1 -x {2.1 5.0 2 ------- null}
h -t 1.11296 -s 2 -d 5 -p tcp -e 1040 -c 1 -i 74 -a 1 -x {2.1 5.0 -1 ------- null}
- -t 1.11296 -s 2 -d 6 -p tcp -e 1040 -c 1 -i 76 -a 1 -x {2.2 6.0 2 ------- null}
h -t 1.11296 -s 2 -d 6 -p tcp -e 1040 -c 1 -i 76 -a 1 -x {2.2 6.0 -1 ------- null}
r -t 1.1148 -s 0 -d 2 -p tcp -e 1040 -c 1 -i 36 -a 1 -x {0.1 2.0 13 ------- null}
+ -t 1.1148 -s 2 -d 0 -p ack -e 40 -c 1 -i 87 -a 1 -x {2.0 0.1 13 ------- null}
- -t 1.1148 -s 2 -d 0 -p ack -e 40 -c 1 -i 87 -a 1 -x {2.0 0.1 13 ------- null}
h -t 1.1148 -s 2 -d 0 -p ack -e 40 -c 1 -i 87 -a 1 -x {2.0 0.1 -1 ------- null}
r -t 1.11493 -s 1 -d 3 -p cbr -e 210 -c 0 -i 84 -a 0 -x {1.1 3.0 3 ------- null}
r -t 1.11493 -s 1 -d 4 -p cbr -e 210 -c 0 -i 85 -a 0 -x {1.2 4.0 3 ------- null}
r -t 1.11496 -s 2 -d 5 -p tcp -e 1040 -c 1 -i 73 -a 1 -x {2.1 5.0 1 ------- null}
+ -t 1.11496 -s 5 -d 2 -p ack -e 40 -c 1 -i 88 -a 1 -x {5.0 2.1 1 ------- null}
- -t 1.11496 -s 5 -d 2 -p ack -e 40 -c 1 -i 88 -a 1 -x {5.0 2.1 1 ------- null}
h -t 1.11496 -s 5 -d 2 -p ack -e 40 -c 1 -i 88 -a 1 -x {5.0 2.1 -1 ------- null}
r -t 1.11496 -s 2 -d 6 -p tcp -e 1040 -c 1 -i 75 -a 1 -x {2.2 6.0 1 ------- null}
+ -t 1.11496 -s 6 -d 2 -p ack -e 40 -c 1 -i 89 -a 1 -x {6.0 2.2 1 ------- null}
- -t 1.11496 -s 6 -d 2 -p ack -e 40 -c 1 -i 89 -a 1 -x {6.0 2.2 1 ------- null}
h -t 1.11496 -s 6 -d 2 -p ack -e 40 -c 1 -i 89 -a 1 -x {6.0 2.2 -1 ------- null}
+ -t 1.115 -s 1 -d 3 -p cbr -e 210 -c 0 -i 90 -a 0 -x {1.1 3.0 4 ------- null}
- -t 1.115 -s 1 -d 3 -p cbr -e 210 -c 0 -i 90 -a 0 -x {1.1 3.0 4 ------- null}
h -t 1.115 -s 1 -d 3 -p cbr -e 210 -c 0 -i 90 -a 0 -x {1.1 3.0 -1 ------- null}
+ -t 1.115 -s 1 -d 4 -p cbr -e 210 -c 0 -i 91 -a 0 -x {1.2 4.0 4 ------- null}
- -t 1.115 -s 1 -d 4 -p cbr -e 210 -c 0 -i 91 -a 0 -x {1.2 4.0 4 ------- null}
h -t 1.115 -s 1 -d 4 -p cbr -e 210 -c 0 -i 91 -a 0 -x {1.2 4.0 -1 ------- null}
r -t 1.11618 -s 0 -d 1 -p cbr -e 210 -c 0 -i 86 -a 0 -x {0.0 1.0 30 ------- null}
+ -t 1.11625 -s 0 -d 1 -p cbr -e 210 -c 0 -i 92 -a 0 -x {0.0 1.0 31 ------- null}
- -t 1.11625 -s 0 -d 1 -p cbr -e 210 -c 0 -i 92 -a 0 -x {0.0 1.0 31 ------- null}
h -t 1.11625 -s 0 -d 1 -p cbr -e 210 -c 0 -i 92 -a 0 -x {0.0 1.0 -1 ------- null}
r -t 1.11712 -s 2 -d 0 -p ack -e 40 -c 1 -i 87 -a 1 -x {2.0 0.1 13 ------- null}
+ -t 1.11712 -s 0 -d 2 -p tcp -e 1040 -c 1 -i 93 -a 1 -x {0.1 2.0 27 ------- null}
+ -t 1.11712 -s 0 -d 2 -p tcp -e 1040 -c 1 -i 94 -a 1 -x {0.1 2.0 28 ------- null}
r -t 1.11728 -s 5 -d 2 -p ack -e 40 -c 1 -i 88 -a 1 -x {5.0 2.1 1 ------- null}
+ -t 1.11728 -s 2 -d 5 -p tcp -e 1040 -c 1 -i 95 -a 1 -x {2.1 5.0 3 ------- null}
+ -t 1.11728 -s 2 -d 5 -p tcp -e 1040 -c 1 -i 96 -a 1 -x {2.1 5.0 4 ------- null}
r -t 1.11728 -s 6 -d 2 -p ack -e 40 -c 1 -i 89 -a 1 -x {6.0 2.2 1 ------- null}
+ -t 1.11728 -s 2 -d 6 -p tcp -e 1040 -c 1 -i 97 -a 1 -x {2.2 6.0 3 ------- null}
+ -t 1.11728 -s 2 -d 6 -p tcp -e 1040 -c 1 -i 98 -a 1 -x {2.2 6.0 4 ------- null}
r -t 1.11868 -s 1 -d 3 -p cbr -e 210 -c 0 -i 90 -a 0 -x {1.1 3.0 4 ------- null}
r -t 1.11868 -s 1 -d 4 -p cbr -e 210 -c 0 -i 91 -a 0 -x {1.2 4.0 4 ------- null}
+ -t 1.11875 -s 1 -d 3 -p cbr -e 210 -c 0 -i 99 -a 0 -x {1.1 3.0 5 ------- null}
- -t 1.11875 -s 1 -d 3 -p cbr -e 210 -c 0 -i 99 -a 0 -x {1.1 3.0 5 ------- null}
h -t 1.11875 -s 1 -d 3 -p cbr -e 210 -c 0 -i 99 -a 0 -x {1.1 3.0 -1 ------- null}
+ -t 1.11875 -s 1 -d 4 -p cbr -e 210 -c 0 -i 100 -a 0 -x {1.2 4.0 5 ------- null}
- -t 1.11875 -s 1 -d 4 -p cbr -e 210 -c 0 -i 100 -a 0 -x {1.2 4.0 5 ------- null}
h -t 1.11875 -s 1 -d 4 -p cbr -e 210 -c 0 -i 100 -a 0 -x {1.2 4.0 -1 ------- null}
r -t 1.11993 -s 0 -d 1 -p cbr -e 210 -c 0 -i 92 -a 0 -x {0.0 1.0 31 ------- null}
+ -t 1.12 -s 0 -d 1 -p cbr -e 210 -c 0 -i 101 -a 0 -x {0.0 1.0 32 ------- null}
- -t 1.12 -s 0 -d 1 -p cbr -e 210 -c 0 -i 101 -a 0 -x {0.0 1.0 32 ------- null}
h -t 1.12 -s 0 -d 1 -p cbr -e 210 -c 0 -i 101 -a 0 -x {0.0 1.0 -1 ------- null}
- -t 1.12112 -s 0 -d 2 -p tcp -e 1040 -c 1 -i 41 -a 1 -x {0.1 2.0 15 ------- null}
h -t 1.12112 -s 0 -d 2 -p tcp -e 1040 -c 1 -i 41 -a 1 -x {0.1 2.0 -1 ------- null}
- -t 1.12128 -s 2 -d 5 -p tcp -e 1040 -c 1 -i 95 -a 1 -x {2.1 5.0 3 ------- null}
h -t 1.12128 -s 2 -d 5 -p tcp -e 1040 -c 1 -i 95 -a 1 -x {2.1 5.0 -1 ------- null}
- -t 1.12128 -s 2 -d 6 -p tcp -e 1040 -c 1 -i 97 -a 1 -x {2.2 6.0 3 ------- null}
h -t 1.12128 -s 2 -d 6 -p tcp -e 1040 -c 1 -i 97 -a 1 -x {2.2 6.0 -1 ------- null}
r -t 1.12243 -s 1 -d 3 -p cbr -e 210 -c 0 -i 99 -a 0 -x {1.1 3.0 5 ------- null}
r -t 1.12243 -s 1 -d 4 -p cbr -e 210 -c 0 -i 100 -a 0 -x {1.2 4.0 5 ------- null}
+ -t 1.1225 -s 1 -d 3 -p cbr -e 210 -c 0 -i 102 -a 0 -x {1.1 3.0 6 ------- null}
- -t 1.1225 -s 1 -d 3 -p cbr -e 210 -c 0 -i 102 -a 0 -x {1.1 3.0 6 ------- null}
h -t 1.1225 -s 1 -d 3 -p cbr -e 210 -c 0 -i 102 -a 0 -x {1.1 3.0 -1 ------- null}