+ 1 0 1 cbr 210 ------- 0 0.0 1.0 0 0
- 1 0 1 cbr 210 ------- 0 0.0 1.0 0 0
+ 1 0 2 tcp 40 ------- 1 0.2 2.0 0 1
- 1 0 2 tcp 40 ------- 1 0.2 2.0 0 1
r 1.00232 0 2 tcp 40 ------- 1 0.2 2.0 0 1
+ 1.00232 2 0 ack 40 ------- 1 2.0 0.2 0 2
- 1.00232 2 0 ack 40 ------- 1 2.0 0.2 0 2
r 1.00368 0 1 cbr 210 ------- 0 0.0 1.0 0 0
+ 1.00375 0 1 cbr 210 ------- 0 0.0 1.0 1 3
- 1.00375 0 1 cbr 210 ------- 0 0.0 1.0 1 3
r 1.00464 2 0 ack 40 ------- 1 2.0 0.2 0 2
+ 1.00464 0 2 tcp 1040 ------- 1 0.2 2.0 1 4
- 1.00464 0 2 tcp 1040 ------- 1 0.2 2.0 1 4
+ 1.00464 0 2 tcp 1040 ------- 1 0.2 2.0 2 5
r 1.00743 0 1 cbr 210 ------- 0 0.0 1.0 1 3
+ 1.0075 0 1 cbr 210 ------- 0 0.0 1.0 2 6
- 1.0075 0 1 cbr 210 ------- 0 0.0 1.0 2 6
r 1.01118 0 1 cbr 210 ------- 0 0.0 1.0 2 6
+ 1.01125 0 1 cbr 210 ------- 0 0.0 1.0 3 7
- 1.01125 0 1 cbr 210 ------- 0 0.0 1.0 3 7
- 1.01296 0 2 tcp 1040 ------- 1 0.2 2.0 2 5
r 1.01493 0 1 cbr 210 ------- 0 0.0 1.0 3 7
r 1.01496 0 2 tcp 1040 ------- 1 0.2 2.0 1 4
+ 1.01496 2 0 ack 40 ------- 1 2.0 0.2 1 8
- 1.01496 2 0 ack 40 ------- 1 2.0 0.2 1 8
+ 1.015 0 1 cbr 210 ------- 0 0.0 1.0 4 9
- 1.015 0 1 cbr 210 ------- 0 0.0 1.0 4 9
r 1.01728 2 0 ack 40 ------- 1 2.0 0.2 1 8
+ 1.01728 0 2 tcp 1040 ------- 1 0.2 2.0 3 10
+ 1.01728 0 2 tcp 1040 ------- 1 0.2 2.0 4 11
r 1.01868 0 1 cbr 210 ------- 0 0.0 1.0 4 9
+ 1.01875 0 1 cbr 210 ------- 0 0.0 1.0 5 12
- 1.01875 0 1 cbr 210 ------- 0 0.0 1.0 5 12
- 1.02128 0 2 tcp 1040 ------- 1 0.2 2.0 3 10
r 1.02243 0 1 cbr 210 ------- 0 0.0 1.0 5 12
+ 1.0225 0 1 cbr 210 ------- 0 0.0 1.0 6 13
- 1.0225 0 1 cbr 210 ------- 0 0.0 1.0 6 13
r 1.02328 0 2 tcp 1040 ------- 1 0.2 2.0 2 5
+ 1.02328 2 0 ack 40 ------- 1 2.0 0.2 2 14
- 1.02328 2 0 ack 40 ------- 1 2.0 0.2 2 14
r 1.0256 2 0 ack 40 ------- 1 2.0 0.2 2 14
+ 1.0256 0 2 tcp 1040 ------- 1 0.2 2.0 5 15
+ 1.0256 0 2 tcp 1040 ------- 1 0.2 2.0 6 16
r 1.02618 0 1 cbr 210 ------- 0 0.0 1.0 6 13
+ 1.02625 0 1 cbr 210 ------- 0 0.0 1.0 7 17
- 1.02625 0 1 cbr 210 ------- 0 0.0 1.0 7 17
- 1.0296 0 2 tcp 1040 ------- 1 0.2 2.0 4 11
r 1.02993 0 1 cbr 210 ------- 0 0.0 1.0 7 17
+ 1.03 0 1 cbr 210 ------- 0 0.0 1.0 8 18
- 1.03 0 1 cbr 210 ------- 0 0.0 1.0 8 18
r 1.0316 0 2 tcp 1040 ------- 1 0.2 2.0 3 10
+ 1.0316 2 0 ack 40 ------- 1 2.0 0.2 3 19
- 1.0316 2 0 ack 40 ------- 1 2.0 0.2 3 19
r 1.03368 0 1 cbr 210 ------- 0 0.0 1.0 8 18
+ 1.03375 0 1 cbr 210 ------- 0 0.0 1.0 9 20
- 1.03375 0 1 cbr 210 ------- 0 0.0 1.0 9 20
r 1.03392 2 0 ack 40 ------- 1 2.0 0.2 3 19
+ 1.03392 0 2 tcp 1040 ------- 1 0.2 2.0 7 21
+ 1.03392 0 2 tcp 1040 ------- 1 0.2 2.0 8 22
r 1.03743 0 1 cbr 210 ------- 0 0.0 1.0 9 20
+ 1.0375 0 1 cbr 210 ------- 0 0.0 1.0 10 23
- 1.0375 0 1 cbr 210 ------- 0 0.0 1.0 10 23
- 1.03792 0 2 tcp 1040 ------- 1 0.2 2.0 5 15
r 1.03992 0 2 tcp 1040 ------- 1 0.2 2.0 4 11
+ 1.03992 2 0 ack 40 ------- 1 2.0 0.2 4 24
- 1.03992 2 0 ack 40 ------- 1 2.0 0.2 4 24
r 1.04118 0 1 cbr 210 ------- 0 0.0 1.0 10 23
+ 1.04125 0 1 cbr 210 ------- 0 0.0 1.0 11 25
- 1.04125 0 1 cbr 210 ------- 0 0.0 1.0 11 25
r 1.04224 2 0 ack 40 ------- 1 2.0 0.2 4 24
+ 1.04224 0 2 tcp 1040 ------- 1 0.2 2.0 9 26
+ 1.04224 0 2 tcp 1040 ------- 1 0.2 2.0 10 27
r 1.04493 0 1 cbr 210 ------- 0 0.0 1.0 11 25
+ 1.045 0 1 cbr 210 ------- 0 0.0 1.0 12 28
- 1.045 0 1 cbr 210 ------- 0 0.0 1.0 12 28
- 1.04624 0 2 tcp 1040 ------- 1 0.2 2.0 6 16
r 1.04824 0 2 tcp 1040 ------- 1 0.2 2.0 5 15
+ 1.04824 2 0 ack 40 ------- 1 2.0 0.2 5 29
- 1.04824 2 0 ack 40 ------- 1 2.0 0.2 5 29
r 1.04868 0 1 cbr 210 ------- 0 0.0 1.0 12 28
+ 1.04875 0 1 cbr 210 ------- 0 0.0 1.0 13 30
- 1.04875 0 1 cbr 210 ------- 0 0.0 1.0 13 30
r 1.05056 2 0 ack 40 ------- 1 2.0 0.2 5 29
+ 1.05056 0 2 tcp 1040 ------- 1 0.2 2.0 11 31
+ 1.05056 0 2 tcp 1040 ------- 1 0.2 2.0 12 32
r 1.05243 0 1 cbr 210 ------- 0 0.0 1.0 13 30
+ 1.0525 0 1 cbr 210 ------- 0 0.0 1.0 14 33
- 1.0525 0 1 cbr 210 ------- 0 0.0 1.0 14 33
- 1.05456 0 2 tcp 1040 ------- 1 0.2 2.0 7 21
r 1.05618 0 1 cbr 210 ------- 0 0.0 1.0 14 33
+ 1.05625 0 1 cbr 210 ------- 0 0.0 1.0 15 34
- 1.05625 0 1 cbr 210 ------- 0 0.0 1.0 15 34
r 1.05656 0 2 tcp 1040 ------- 1 0.2 2.0 6 16
+ 1.05656 2 0 ack 40 ------- 1 2.0 0.2 6 35
- 1.05656 2 0 ack 40 ------- 1 2.0 0.2 6 35
r 1.05888 2 0 ack 40 ------- 1 2.0 0.2 6 35
+ 1.05888 0 2 tcp 1040 ------- 1 0.2 2.0 13 36
+ 1.05888 0 2 tcp 1040 ------- 1 0.2 2.0 14 37
r 1.05993 0 1 cbr 210 ------- 0 0.0 1.0 15 34
+ 1.06 0 1 cbr 210 ------- 0 0.0 1.0 16 38
- 1.06 0 1 cbr 210 ------- 0 0.0 1.0 16 38
- 1.06288 0 2 tcp 1040 ------- 1 0.2 2.0 8 22
r 1.06368 0 1 cbr 210 ------- 0 0.0 1.0 16 38
+ 1.06375 0 1 cbr 210 ------- 0 0.0 1.0 17 39
- 1.06375 0 1 cbr 210 ------- 0 0.0 1.0 17 39
r 1.06488 0 2 tcp 1040 ------- 1 0.2 2.0 7 21
+ 1.06488 2 0 ack 40 ------- 1 2.0 0.2 7 40
- 1.06488 2 0 ack 40 ------- 1 2.0 0.2 7 40
r 1.0672 2 0 ack 40 ------- 1 2.0 0.2 7 40
+ 1.0672 0 2 tcp 1040 ------- 1 0.2 2.0 15 41
+ 1.0672 0 2 tcp 1040 ------- 1 0.2 2.0 16 42
r 1.06743 0 1 cbr 210 ------- 0 0.0 1.0 17 39
+ 1.0675 0 1 cbr 210 ------- 0 0.0 1.0 18 43
- 1.0675 0 1 cbr 210 ------- 0 0.0 1.0 18 43
r 1.07118 0 1 cbr 210 ------- 0 0.0 1.0 18 43
- 1.0712 0 2 tcp 1040 ------- 1 0.2 2.0 9 26
+ 1.07125 0 1 cbr 210 ------- 0 0.0 1.0 19 44
- 1.07125 0 1 cbr 210 ------- 0 0.0 1.0 19 44
r 1.0732 0 2 tcp 1040 ------- 1 0.2 2.0 8 22
+ 1.0732 2 0 ack 40 ------- 1 2.0 0.2 8 45
- 1.0732 2 0 ack 40 ------- 1 2.0 0.2 8 45
r 1.07493 0 1 cbr 210 ------- 0 0.0 1.0 19 44
+ 1.075 0 1 cbr 210 ------- 0 0.0 1.0 20 46
- 1.075 0 1 cbr 210 ------- 0 0.0 1.0 20 46
r 1.07552 2 0 ack 40 ------- 1 2.0 0.2 8 45
+ 1.07552 0 2 tcp 1040 ------- 1 0.2 2.0 17 47
+ 1.07552 0 2 tcp 1040 ------- 1 0.2 2.0 18 48
r 1.07868 0 1 cbr 210 ------- 0 0.0 1.0 20 46
+ 1.07875 0 1 cbr 210 ------- 0 0.0 1.0 21 49
- 1.07875 0 1 cbr 210 ------- 0 0.0 1.0 21 49
- 1.07952 0 2 tcp 1040 ------- 1 0.2 2.0 10 27
r 1.08152 0 2 tcp 1040 ------- 1 0.2 2.0 9 26
+ 1.08152 2 0 ack 40 ------- 1 2.0 0.2 9 50
- 1.08152 2 0 ack 40 ------- 1 2.0 0.2 9 50
r 1.08243 0 1 cbr 210 ------- 0 0.0 1.0 21 49
+ 1.0825 0 1 cbr 210 ------- 0 0.0 1.0 22 51
- 1.0825 0 1 cbr 210 ------- 0 0.0 1.0 22 51
r 1.08384 2 0 ack 40 ------- 1 2.0 0.2 9 50
+ 1.08384 0 2 tcp 1040 ------- 1 0.2 2.0 19 52
+ 1.08384 0 2 tcp 1040 ------- 1 0.2 2.0 20 53
r 1.08618 0 1 cbr 210 ------- 0 0.0 1.0 22 51
+ 1.08625 0 1 cbr 210 ------- 0 0.0 1.0 23 54
- 1.08625 0 1 cbr 210 ------- 0 0.0 1.0 23 54
- 1.08784 0 2 tcp 1040 ------- 1 0.2 2.0 11 31
r 1.08984 0 2 tcp 1040 ------- 1 0.2 2.0 10 27
+ 1.08984 2 0 ack 40 ------- 1 2.0 0.2 10 55
- 1.08984 2 0 ack 40 ------- 1 2.0 0.2 10 55
r 1.08993 0 1 cbr 210 ------- 0 0.0 1.0 23 54
+ 1.09 0 1 cbr 210 ------- 0 0.0 1.0 24 56
- 1.09 0 1 cbr 210 ------- 0 0.0 1.0 24 56
r 1.09216 2 0 ack 40 ------- 1 2.0 0.2 10 55
+ 1.09216 0 2 tcp 1040 ------- 1 0.2 2.0 21 57
+ 1.09216 0 2 tcp 1040 ------- 1 0.2 2.0 22 58
r 1.09368 0 1 cbr 210 ------- 0 0.0 1.0 24 56
+ 1.09375 0 1 cbr 210 ------- 0 0.0 1.0 25 59
- 1.09375 0 1 cbr 210 ------- 0 0.0 1.0 25 59
- 1.09616 0 2 tcp 1040 ------- 1 0.2 2.0 12 32
r 1.09743 0 1 cbr 210 ------- 0 0.0 1.0 25 59
+ 1.0975 0 1 cbr 210 ------- 0 0.0 1.0 26 60
- 1.0975 0 1 cbr 210 ------- 0 0.0 1.0 26 60
r 1.09816 0 2 tcp 1040 ------- 1 0.2 2.0 11 31
+ 1.09816 2 0 ack 40 ------- 1 2.0 0.2 11 61
- 1.09816 2 0 ack 40 ------- 1 2.0 0.2 11 61
+ 1.1 0 3 cbr 210 ------- 0 0.1 3.0 0 62
- 1.1 0 3 cbr 210 ------- 0 0.1 3.0 0 62
+ 1.1 0 4 tcp 40 ------- 1 0.3 4.0 0 63
- 1.1 0 4 tcp 40 ------- 1 0.3 4.0 0 63
r 1.10048 2 0 ack 40 ------- 1 2.0 0.2 11 61
+ 1.10048 0 2 tcp 1040 ------- 1 0.2 2.0 23 64
+ 1.10048 0 2 tcp 1040 ------- 1 0.2 2.0 24 65
r 1.10118 0 1 cbr 210 ------- 0 0.0 1.0 26 60
+ 1.10125 0 1 cbr 210 ------- 0 0.0 1.0 27 66
- 1.10125 0 1 cbr 210 ------- 0 0.0 1.0 27 66
r 1.10232 0 4 tcp 40 ------- 1 0.3 4.0 0 63
+ 1.10232 4 0 ack 40 ------- 1 4.0 0.3 0 67
- 1.10232 4 0 ack 40 ------- 1 4.0 0.3 0 67
r 1.10368 0 3 cbr 210 ------- 0 0.1 3.0 0 62
+ 1.10375 0 3 cbr 210 ------- 0 0.1 3.0 1 68
- 1.10375 0 3 cbr 210 ------- 0 0.1 3.0 1 68
- 1.10448 0 2 tcp 1040 ------- 1 0.2 2.0 13 36
r 1.10464 4 0 ack 40 ------- 1 4.0 0.3 0 67
+ 1.10464 0 4 tcp 1040 ------- 1 0.3 4.0 1 69
- 1.10464 0 4 tcp 1040 ------- 1 0.3 4.0 1 69
+ 1.10464 0 4 tcp 1040 ------- 1 0.3 4.0 2 70
r 1.10493 0 1 cbr 210 ------- 0 0.0 1.0 27 66
+ 1.105 0 1 cbr 210 ------- 0 0.0 1.0 28 71
- 1.105 0 1 cbr 210 ------- 0 0.0 1.0 28 71
r 1.10648 0 2 tcp 1040 ------- 1 0.2 2.0 12 32
+ 1.10648 2 0 ack 40 ------- 1 2.0 0.2 12 72
- 1.10648 2 0 ack 40 ------- 1 2.0 0.2 12 72
r 1.10743 0 3 cbr 210 ------- 0 0.1 3.0 1 68
+ 1.1075 0 3 cbr 210 ------- 0 0.1 3.0 2 73
- 1.1075 0 3 cbr 210 ------- 0 0.1 3.0 2 73
r 1.10868 0 1 cbr 210 ------- 0 0.0 1.0 28 71
+ 1.10875 0 1 cbr 210 ------- 0 0.0 1.0 29 74
- 1.10875 0 1 cbr 210 ------- 0 0.0 1.0 29 74
r 1.1088 2 0 ack 40 ------- 1 2.0 0.2 12 72
+ 1.1088 0 2 tcp 1040 ------- 1 0.2 2.0 25 75
+ 1.1088 0 2 tcp 1040 ------- 1 0.2 2.0 26 76
r 1.11118 0 3 cbr 210 ------- 0 0.1 3.0 2 73
+ 1.11125 0 3 cbr 210 ------- 0 0.1 3.0 3 77
- 1.11125 0 3 cbr 210 ------- 0 0.1 3.0 3 77
r 1.11243 0 1 cbr 210 ------- 0 0.0 1.0 29 74
+ 1.1125 0 1 cbr 210 ------- 0 0.0 1.0 30 78
- 1.1125 0 1 cbr 210 ------- 0 0.0 1.0 30 78
- 1.1128 0 2 tcp 1040 ------- 1 0.2 2.0 14 37
- 1.11296 0 4 tcp 1040 ------- 1 0.3 4.0 2 70
r 1.1148 0 2 tcp 1040 ------- 1 0.2 2.0 13 36
+ 1.1148 2 0 ack 40 ------- 1 2.0 0.2 13 79
- 1.1148 2 0 ack 40 ------- 1 2.0 0.2 13 79
r 1.11493 0 3 cbr 210 ------- 0 0.1 3.0 3 77
r 1.11496 0 4 tcp 1040 ------- 1 0.3 4.0 1 69
+ 1.11496 4 0 ack 40 ------- 1 4.0 0.3 1 80
- 1.11496 4 0 ack 40 ------- 1 4.0 0.3 1 80
+ 1.115 0 3 cbr 210 ------- 0 0.1 3.0 4 81
- 1.115 0 3 cbr 210 ------- 0 0.1 3.0 4 81
r 1.11618 0 1 cbr 210 ------- 0 0.0 1.0 30 78
+ 1.11625 0 1 cbr 210 ------- 0 0.0 1.0 31 82
- 1.11625 0 1 cbr 210 ------- 0 0.0 1.0 31 82
r 1.11712 2 0 ack 40 ------- 1 2.0 0.2 13 79
+ 1.11712 0 2 tcp 1040 ------- 1 0.2 2.0 27 83
+ 1.11712 0 2 tcp 1040 ------- 1 0.2 2.0 28 84
r 1.11728 4 0 ack 40 ------- 1 4.0 0.3 1 80
+ 1.11728 0 4 tcp 1040 ------- 1 0.3 4.0 3 85
+ 1.11728 0 4 tcp 1040 ------- 1 0.3 4.0 4 86
r 1.11868 0 3 cbr 210 ------- 0 0.1 3.0 4 81
+ 1.11875 0 3 cbr 210 ------- 0 0.1 3.0 5 87
- 1.11875 0 3 cbr 210 ------- 0 0.1 3.0 5 87
r 1.11993 0 1 cbr 210 ------- 0 0.0 1.0 31 82
+ 1.12 0 1 cbr 210 ------- 0 0.0 1.0 32 88
- 1.12 0 1 cbr 210 ------- 0 0.0 1.0 32 88
- 1.12112 0 2 tcp 1040 ------- 1 0.2 2.0 15 41
- 1.12128 0 4 tcp 1040 ------- 1 0.3 4.0 3 85
r 1.12243 0 3 cbr 210 ------- 0 0.1 3.0 5 87
+ 1.1225 0 3 cbr 210 ------- 0 0.1 3.0 6 89
- 1.1225 0 3 cbr 210 ------- 0 0.1 3.0 6 89
r 1.12312 0 2 tcp 1040 ------- 1 0.2 2.0 14 37
+ 1.12312 2 0 ack 40 ------- 1 2.0 0.2 14 90
- 1.12312 2 0 ack 40 ------- 1 2.0 0.2 14 90
r 1.12328 0 4 tcp 1040 ------- 1 0.3 4.0 2 70
+ 1.12328 4 0 ack 40 ------- 1 4.0 0.3 2 91
- 1.12328 4 0 ack 40 ------- 1 4.0 0.3 2 91
r 1.12368 0 1 cbr 210 ------- 0 0.0 1.0 32 88
+ 1.12375 0 1 cbr 210 ------- 0 0.0 1.0 33 92
- 1.12375 0 1 cbr 210 ------- 0 0.0 1.0 33 92
r 1.12544 2 0 ack 40 ------- 1 2.0 0.2 14 90
+ 1.12544 0 2 tcp 1040 ------- 1 0.2 2.0 29 93
+ 1.12544 0 2 tcp 1040 ------- 1 0.2 2.0 30 94
r 1.1256 4 0 ack 40 ------- 1 4.0 0.3 2 91
+ 1.1256 0 4 tcp 1040 ------- 1 0.3 4.0 5 95
+ 1.1256 0 4 tcp 1040 ------- 1 0.3 4.0 6 96
r 1.12618 0 3 cbr 210 ------- 0 0.1 3.0 6 89
+ 1.12625 0 3 cbr 210 ------- 0 0.1 3.0 7 97
- 1.12625 0 3 cbr 210 ------- 0 0.1 3.0 7 97
r 1.12743 0 1 cbr 210 ------- 0 0.0 1.0 33 92
+ 1.1275 0 1 cbr 210 ------- 0 0.0 1.0 34 98
- 1.1275 0 1 cbr 210 ------- 0 0.0 1.0 34 98
- 1.12944 0 2 tcp 1040 ------- 1 0.2 2.0 16 42
- 1.1296 0 4 tcp 1040 ------- 1 0.3 4.0 4 86
r 1.12993 0 3 cbr 210 ------- 0 0.1 3.0 7 97
+ 1.13 0 3 cbr 210 ------- 0 0.1 3.0 8 99
- 1.13 0 3 cbr 210 ------- 0 0.1 3.0 8 99
r 1.13118 0 1 cbr 210 ------- 0 0.0 1.0 34 98
+ 1.13125 0 1 cbr 210 ------- 0 0.0 1.0 35 100
- 1.13125 0 1 cbr 210 ------- 0 0.0 1.0 35 100
r 1.13144 0 2 tcp 1040 ------- 1 0.2 2.0 15 41
+ 1.13144 2 0 ack 40 ------- 1 2.0 0.2 15 101
- 1.13144 2 0 ack 40 ------- 1 2.0 0.2 15 101
r 1.1316 0 4 tcp 1040 ------- 1 0.3 4.0 3 85
+ 1.1316 4 0 ack 40 ------- 1 4.0 0.3 3 102
- 1.1316 4 0 ack 40 ------- 1 4.0 0.3 3 102
r 1.13368 0 3 cbr 210 ------- 0 0.1 3.0 8 99
+ 1.13375 0 3 cbr 210 ------- 0 0.1 3.0 9 103
- 1.13375 0 3 cbr 210 ------- 0 0.1 3.0 9 103
r 1.13376 2 0 ack 40 ------- 1 2.0 0.2 15 101
+ 1.13376 0 2 tcp 1040 ------- 1 0.2 2.0 31 104
+ 1.13376 0 2 tcp 1040 ------- 1 0.2 2.0 32 105
r 1.13392 4 0 ack 40 ------- 1 4.0 0.3 3 102
+ 1.13392 0 4 tcp 1040 ------- 1 0.3 4.0 7 106
+ 1.13392 0 4 tcp 1040 ------- 1 0.3 4.0 8 107
r 1.13493 0 1 cbr 210 ------- 0 0.0 1.0 35 100
+ 1.135 0 1 cbr 210 ------- 0 0.0 1.0 36 108
- 1.135 0 1 cbr 210 ------- 0 0.0 1.0 36 108
r 1.13743 0 3 cbr 210 ------- 0 0.1 3.0 9 103
+ 1.1375 0 3 cbr 210 ------- 0 0.1 3.0 10 109
- 1.1375 0 3 cbr 210 ------- 0 0.1 3.0 10 109
- 1.13776 0 2 tcp 1040 ------- 1 0.2 2.0 17 47
- 1.13792 0 4 tcp 1040 ------- 1 0.3 4.0 5 95
r 1.13868 0 1 cbr 210 ------- 0 0.0 1.0 36 108
+ 1.13875 0 1 cbr 210 ------- 0 0.0 1.0 37 110
- 1.13875 0 1 cbr 210 ------- 0 0.0 1.0 37 110
r 1.13976 0 2 tcp 1040 ------- 1 0.2 2.0 16 42
+ 1.13976 2 0 ack 40 ------- 1 2.0 0.2 16 111
- 1.13976 2 0 ack 40 ------- 1 2.0 0.2 16 111
r 1.13992 0 4 tcp 1040 ------- 1 0.3 4.0 4 86
+ 1.13992 4 0 ack 40 ------- 1 4.0 0.3 4 112
- 1.13992 4 0 ack 40 ------- 1 4.0 0.3 4 112
r 1.14118 0 3 cbr 210 ------- 0 0.1 3.0 10 109
+ 1.14125 0 3 cbr 210 ------- 0 0.1 3.0 11 113
- 1.14125 0 3 cbr 210 ------- 0 0.1 3.0 11 113
r 1.14208 2 0 ack 40 ------- 1 2.0 0.2 16 111
+ 1.14208 0 2 tcp 1040 ------- 1 0.2 2.0 33 114
+ 1.14208 0 2 tcp 1040 ------- 1 0.2 2.0 34 115
r 1.14224 4 0 ack 40 ------- 1 4.0 0.3 4 112
+ 1.14224 0 4 tcp 1040 ------- 1 0.3 4.0 9 116
+ 1.14224 0 4 tcp 1040 ------- 1 0.3 4.0 10 117
r 1.14243 0 1 cbr 210 ------- 0 0.0 1.0 37 110
+ 1.1425 0 1 cbr 210 ------- 0 0.0 1.0 38 118
- 1.1425 0 1 cbr 210 ------- 0 0.0 1.0 38 118
r 1.14493 0 3 cbr 210 ------- 0 0.1 3.0 11 113
+ 1.145 0 3 cbr 210 ------- 0 0.1 3.0 12 119
- 1.145 0 3 cbr 210 ------- 0 0.1 3.0 12 119
- 1.14608 0 2 tcp 1040 ------- 1 0.2 2.0 18 48
r 1.14618 0 1 cbr 210 ------- 0 0.0 1.0 38 118
- 1.14624 0 4 tcp 1040 ------- 1 0.3 4.0 6 96
+ 1.14625 0 1 cbr 210 ------- 0 0.0 1.0 39 120
- 1.14625 0 1 cbr 210 ------- 0 0.0 1.0 39 120
r 1.14808 0 2 tcp 1040 ------- 1 0.2 2.0 17 47
+ 1.14808 2 0 ack 40 ------- 1 2.0 0.2 17 121
- 1.14808 2 0 ack 40 ------- 1 2.0 0.2 17 121
r 1.14824 0 4 tcp 1040 ------- 1 0.3 4.0 5 95
+ 1.14824 4 0 ack 40 ------- 1 4.0 0.3 5 122
- 1.14824 4 0 ack 40 ------- 1 4.0 0.3 5 122
r 1.14868 0 3 cbr 210 ------- 0 0.1 3.0 12 119
+ 1.14875 0 3 cbr 210 ------- 0 0.1 3.0 13 123
- 1.14875 0 3 cbr 210 ------- 0 0.1 3.0 13 123
r 1.14993 0 1 cbr 210 ------- 0 0.0 1.0 39 120
+ 1.15 0 1 cbr 210 ------- 0 0.0 1.0 40 124
- 1.15 0 1 cbr 210 ------- 0 0.0 1.0 40 124
r 1.1504 2 0 ack 40 ------- 1 2.0 0.2 17 121
+ 1.1504 0 2 tcp 1040 ------- 1 0.2 2.0 35 125
+ 1.1504 0 2 tcp 1040 ------- 1 0.2 2.0 36 126
r 1.15056 4 0 ack 40 ------- 1 4.0 0.3 5 122
+ 1.15056 0 4 tcp 1040 ------- 1 0.3 4.0 11 127
+ 1.15056 0 4 tcp 1040 ------- 1 0.3 4.0 12 128
r 1.15243 0 3 cbr 210 ------- 0 0.1 3.0 13 123
+ 1.1525 0 3 cbr 210 ------- 0 0.1 3.0 14 129
- 1.1525 0 3 cbr 210 ------- 0 0.1 3.0 14 129
r 1.15368 0 1 cbr 210 ------- 0 0.0 1.0 40 124
+ 1.15375 0 1 cbr 210 ------- 0 0.0 1.0 41 130
- 1.15375 0 1 cbr 210 ------- 0 0.0 1.0 41 130
- 1.1544 0 2 tcp 1040 ------- 1 0.2 2.0 19 52
- 1.15456 0 4 tcp 1040 ------- 1 0.3 4.0 7 106
r 1.15618 0 3 cbr 210 ------- 0 0.1 3.0 14 129
+ 1.15625 0 3 cbr 210 ------- 0 0.1 3.0 15 131
- 1.15625 0 3 cbr 210 ------- 0 0.1 3.0 15 131
r 1.1564 0 2 tcp 1040 ------- 1 0.2 2.0 18 48
+ 1.1564 2 0 ack 40 ------- 1 2.0 0.2 18 132
- 1.1564 2 0 ack 40 ------- 1 2.0 0.2 18 132
r 1.15656 0 4 tcp 1040 ------- 1 0.3 4.0 6 96
+ 1.15656 4 0 ack 40 ------- 1 4.0 0.3 6 133
- 1.15656 4 0 ack 40 ------- 1 4.0 0.3 6 133
r 1.15743 0 1 cbr 210 ------- 0 0.0 1.0 41 130
+ 1.1575 0 1 cbr 210 ------- 0 0.0 1.0 42 134
- 1.1575 0 1 cbr 210 ------- 0 0.0 1.0 42 134
r 1.15872 2 0 ack 40 ------- 1 2.0 0.2 18 132
+ 1.15872 0 2 tcp 1040 ------- 1 0.2 2.0 37 135
+ 1.15872 0 2 tcp 1040 ------- 1 0.2 2.0 38 136
r 1.15888 4 0 ack 40 ------- 1 4.0 0.3 6 133
+ 1.15888 0 4 tcp 1040 ------- 1 0.3 4.0 13 137
+ 1.15888 0 4 tcp 1040 ------- 1 0.3 4.0 14 138
r 1.15993 0 3 cbr 210 ------- 0 0.1 3.0 15 131
+ 1.16 0 3 cbr 210 ------- 0 0.1 3.0 16 139
- 1.16 0 3 cbr 210 ------- 0 0.1 3.0 16 139
r 1.16118 0 1 cbr 210 ------- 0 0.0 1.0 42 134
+ 1.16125 0 1 cbr 210 ------- 0 0.0 1.0 43 140
- 1.16125 0 1 cbr 210 ------- 0 0.0 1.0 43 140
- 1.16272 0 2 tcp 1040 ------- 1 0.2 2.0 20 53
- 1.16288 0 4 tcp 1040 ------- 1 0.3 4.0 8 107
r 1.16368 0 3 cbr 210 ------- 0 0.1 3.0 16 139
+ 1.16375 0 3 cbr 210 ------- 0 0.1 3.0 17 141
- 1.16375 0 3 cbr 210 ------- 0 0.1 3.0 17 141
r 1.16472 0 2 tcp 1040 ------- 1 0.2 2.0 19 52
+ 1.16472 2 0 ack 40 ------- 1 2.0 0.2 19 142
- 1.16472 2 0 ack 40 ------- 1 2.0 0.2 19 142
r 1.16488 0 4 tcp 1040 ------- 1 0.3 4.0 7 106
+ 1.16488 4 0 ack 40 ------- 1 4.0 0.3 7 143
- 1.16488 4 0 ack 40 ------- 1 4.0 0.3 7 143
r 1.16493 0 1 cbr 210 ------- 0 0.0 1.0 43 140
+ 1.165 0 1 cbr 210 ------- 0 0.0 1.0 44 144
- 1.165 0 1 cbr 210 ------- 0 0.0 1.0 44 144
r 1.16704 2 0 ack 40 ------- 1 2.0 0.2 19 142
+ 1.16704 0 2 tcp 1040 ------- 1 0.2 2.0 39 145
r 1.1672 4 0 ack 40 ------- 1 4.0 0.3 7 143
+ 1.1672 0 4 tcp 1040 ------- 1 0.3 4.0 15 146
+ 1.1672 0 4 tcp 1040 ------- 1 0.3 4.0 16 147
r 1.16743 0 3 cbr 210 ------- 0 0.1 3.0 17 141
+ 1.1675 0 3 cbr 210 ------- 0 0.1 3.0 18 148
- 1.1675 0 3 cbr 210 ------- 0 0.1 3.0 18 148
r 1.16868 0 1 cbr 210 ------- 0 0.0 1.0 44 144
+ 1.16875 0 1 cbr 210 ------- 0 0.0 1.0 45 149
- 1.16875 0 1 cbr 210 ------- 0 0.0 1.0 45 149
- 1.17104 0 2 tcp 1040 ------- 1 0.2 2.0 21 57
r 1.17118 0 3 cbr 210 ------- 0 0.1 3.0 18 148
- 1.1712 0 4 tcp 1040 ------- 1 0.3 4.0 9 116
+ 1.17125 0 3 cbr 210 ------- 0 0.1 3.0 19 150
- 1.17125 0 3 cbr 210 ------- 0 0.1 3.0 19 150
r 1.17243 0 1 cbr 210 ------- 0 0.0 1.0 45 149
+ 1.1725 0 1 cbr 210 ------- 0 0.0 1.0 46 151
- 1.1725 0 1 cbr 210 ------- 0 0.0 1.0 46 151
r 1.17304 0 2 tcp 1040 ------- 1 0.2 2.0 20 53
+ 1.17304 2 0 ack 40 ------- 1 2.0 0.2 20 152
- 1.17304 2 0 ack 40 ------- 1 2.0 0.2 20 152
r 1.1732 0 4 tcp 1040 ------- 1 0.3 4.0 8 107
+ 1.1732 4 0 ack 40 ------- 1 4.0 0.3 8 153
- 1.1732 4 0 ack 40 ------- 1 4.0 0.3 8 153
r 1.17493 0 3 cbr 210 ------- 0 0.1 3.0 19 150
+ 1.175 0 3 cbr 210 ------- 0 0.1 3.0 20 154
- 1.175 0 3 cbr 210 ------- 0 0.1 3.0 20 154
r 1.17536 2 0 ack 40 ------- 1 2.0 0.2 20 152
+ 1.17536 0 2 tcp 1040 ------- 1 0.2 2.0 40 155
r 1.17552 4 0 ack 40 ------- 1 4.0 0.3 8 153
+ 1.17552 0 4 tcp 1040 ------- 1 0.3 4.0 17 156
+ 1.17552 0 4 tcp 1040 ------- 1 0.3 4.0 18 157
r 1.17618 0 1 cbr 210 ------- 0 0.0 1.0 46 151
+ 1.17625 0 1 cbr 210 ------- 0 0.0 1.0 47 158
- 1.17625 0 1 cbr 210 ------- 0 0.0 1.0 47 158
r 1.17868 0 3 cbr 210 ------- 0 0.1 3.0 20 154
+ 1.17875 0 3 cbr 210 ------- 0 0.1 3.0 21 159
- 1.17875 0 3 cbr 210 ------- 0 0.1 3.0 21 159
- 1.17936 0 2 tcp 1040 ------- 1 0.2 2.0 22 58
- 1.17952 0 4 tcp 1040 ------- 1 0.3 4.0 10 117
r 1.17993 0 1 cbr 210 ------- 0 0.0 1.0 47 158
+ 1.18 0 1 cbr 210 ------- 0 0.0 1.0 48 160
- 1.18 0 1 cbr 210 ------- 0 0.0 1.0 48 160
r 1.18136 0 2 tcp 1040 ------- 1 0.2 2.0 21 57
+ 1.18136 2 0 ack 40 ------- 1 2.0 0.2 21 161
- 1.18136 2 0 ack 40 ------- 1 2.0 0.2 21 161
r 1.18152 0 4 tcp 1040 ------- 1 0.3 4.0 9 116
+ 1.18152 4 0 ack 40 ------- 1 4.0 0.3 9 162
- 1.18152 4 0 ack 40 ------- 1 4.0 0.3 9 162
r 1.18243 0 3 cbr 210 ------- 0 0.1 3.0 21 159
+ 1.1825 0 3 cbr 210 ------- 0 0.1 3.0 22 163
- 1.1825 0 3 cbr 210 ------- 0 0.1 3.0 22 163
r 1.18368 0 1 cbr 210 ------- 0 0.0 1.0 48 160
r 1.18368 2 0 ack 40 ------- 1 2.0 0.2 21 161
+ 1.18368 0 2 tcp 1040 ------- 1 0.2 2.0 41 164
+ 1.18375 0 1 cbr 210 ------- 0 0.0 1.0 49 165
- 1.18375 0 1 cbr 210 ------- 0 0.0 1.0 49 165
r 1.18384 4 0 ack 40 ------- 1 4.0 0.3 9 162
+ 1.18384 0 4 tcp 1040 ------- 1 0.3 4.0 19 166
+ 1.18384 0 4 tcp 1040 ------- 1 0.3 4.0 20 167
r 1.18618 0 3 cbr 210 ------- 0 0.1 3.0 22 163
+ 1.18625 0 3 cbr 210 ------- 0 0.1 3.0 23 168
- 1.18625 0 3 cbr 210 ------- 0 0.1 3.0 23 168
r 1.18743 0 1 cbr 210 ------- 0 0.0 1.0 49 165
+ 1.1875 0 1 cbr 210 ------- 0 0.0 1.0 50 169
- 1.1875 0 1 cbr 210 ------- 0 0.0 1.0 50 169
- 1.18768 0 2 tcp 1040 ------- 1 0.2 2.0 23 64
- 1.18784 0 4 tcp 1040 ------- 1 0.3 4.0 11 127
r 1.18968 0 2 tcp 1040 ------- 1 0.2 2.0 22 58
+ 1.18968 2 0 ack 40 ------- 1 2.0 0.2 22 170
- 1.18968 2 0 ack 40 ------- 1 2.0 0.2 22 170
r 1.18984 0 4 tcp 1040 ------- 1 0.3 4.0 10 117
+ 1.18984 4 0 ack 40 ------- 1 4.0 0.3 10 171
- 1.18984 4 0 ack 40 ------- 1 4.0 0.3 10 171
r 1.18993 0 3 cbr 210 ------- 0 0.1 3.0 23 168
+ 1.19 0 3 cbr 210 ------- 0 0.1 3.0 24 172
- 1.19 0 3 cbr 210 ------- 0 0.1 3.0 24 172
r 1.19118 0 1 cbr 210 ------- 0 0.0 1.0 50 169
+ 1.19125 0 1 cbr 210 ------- 0 0.0 1.0 51 173
- 1.19125 0 1 cbr 210 ------- 0 0.0 1.0 51 173
r 1.192 2 0 ack 40 ------- 1 2.0 0.2 22 170
+ 1.192 0 2 tcp 1040 ------- 1 0.2 2.0 42 174
r 1.19216 4 0 ack 40 ------- 1 4.0 0.3 10 171
+ 1.19216 0 4 tcp 1040 ------- 1 0.3 4.0 21 175
+ 1.19216 0 4 tcp 1040 ------- 1 0.3 4.0 22 176
r 1.19368 0 3 cbr 210 ------- 0 0.1 3.0 24 172
+ 1.19375 0 3 cbr 210 ------- 0 0.1 3.0 25 177
- 1.19375 0 3 cbr 210 ------- 0 0.1 3.0 25 177
r 1.19493 0 1 cbr 210 ------- 0 0.0 1.0 51 173
+ 1.195 0 1 cbr 210 ------- 0 0.0 1.0 52 178
- 1.195 0 1 cbr 210 ------- 0 0.0 1.0 52 178
- 1.196 0 2 tcp 1040 ------- 1 0.2 2.0 24 65
- 1.19616 0 4 tcp 1040 ------- 1 0.3 4.0 12 128
r 1.19743 0 3 cbr 210 ------- 0 0.1 3.0 25 177
+ 1.1975 0 3 cbr 210 ------- 0 0.1 3.0 26 179
- 1.1975 0 3 cbr 210 ------- 0 0.1 3.0 26 179
r 1.198 0 2 tcp 1040 ------- 1 0.2 2.0 23 64
+ 1.198 2 0 ack 40 ------- 1 2.0 0.2 23 180
- 1.198 2 0 ack 40 ------- 1 2.0 0.2 23 180
r 1.19816 0 4 tcp 1040 ------- 1 0.3 4.0 11 127
+ 1.19816 4 0 ack 40 ------- 1 4.0 0.3 11 181
- 1.19816 4 0 ack 40 ------- 1 4.0 0.3 11 181
r 1.19868 0 1 cbr 210 ------- 0 0.0 1.0 52 178
+ 1.19875 0 1 cbr 210 ------- 0 0.0 1.0 53 182
- 1.19875 0 1 cbr 210 ------- 0 0.0 1.0 53 182
r 1.20032 2 0 ack 40 ------- 1 2.0 0.2 23 180
+ 1.20032 0 2 tcp 1040 ------- 1 0.2 2.0 43 183
r 1.20048 4 0 ack 40 ------- 1 4.0 0.3 11 181
+ 1.20048 0 4 tcp 1040 ------- 1 0.3 4.0 23 184
+ 1.20048 0 4 tcp 1040 ------- 1 0.3 4.0 24 185
r 1.20118 0 3 cbr 210 ------- 0 0.1 3.0 26 179
+ 1.20125 0 3 cbr 210 ------- 0 0.1 3.0 27 186
- 1.20125 0 3 cbr 210 ------- 0 0.1 3.0 27 186
r 1.20243 0 1 cbr 210 ------- 0 0.0 1.0 53 182
+ 1.2025 0 1 cbr 210 ------- 0 0.0 1.0 54 187
- 1.2025 0 1 cbr 210 ------- 0 0.0 1.0 54 187
- 1.20432 0 2 tcp 1040 ------- 1 0.2 2.0 25 75
- 1.20448 0 4 tcp 1040 ------- 1 0.3 4.0 13 137
r 1.20493 0 3 cbr 210 ------- 0 0.1 3.0 27 186
+ 1.205 0 3 cbr 210 ------- 0 0.1 3.0 28 188
- 1.205 0 3 cbr 210 ------- 0 0.1 3.0 28 188
r 1.20618 0 1 cbr 210 ------- 0 0.0 1.0 54 187
+ 1.20625 0 1 cbr 210 ------- 0 0.0 1.0 55 189
- 1.20625 0 1 cbr 210 ------- 0 0.0 1.0 55 189
r 1.20632 0 2 tcp 1040 ------- 1 0.2 2.0 24 65
+ 1.20632 2 0 ack 40 ------- 1 2.0 0.2 24 190
- 1.20632 2 0 ack 40 ------- 1 2.0 0.2 24 190
r 1.20648 0 4 tcp 1040 ------- 1 0.3 4.0 12 128
+ 1.20648 4 0 ack 40 ------- 1 4.0 0.3 12 191
- 1.20648 4 0 ack 40 ------- 1 4.0 0.3 12 191
r 1.20864 2 0 ack 40 ------- 1 2.0 0.2 24 190
+ 1.20864 0 2 tcp 1040 ------- 1 0.2 2.0 44 192
r 1.20868 0 3 cbr 210 ------- 0 0.1 3.0 28 188
+ 1.20875 0 3 cbr 210 ------- 0 0.1 3.0 29 193
- 1.20875 0 3 cbr 210 ------- 0 0.1 3.0 29 193
r 1.2088 4 0 ack 40 ------- 1 4.0 0.3 12 191
+ 1.2088 0 4 tcp 1040 ------- 1 0.3 4.0 25 194
+ 1.2088 0 4 tcp 1040 ------- 1 0.3 4.0 26 195
r 1.20993 0 1 cbr 210 ------- 0 0.0 1.0 55 189
+ 1.21 0 1 cbr 210 ------- 0 0.0 1.0 56 196
- 1.21 0 1 cbr 210 ------- 0 0.0 1.0 56 196
r 1.21243 0 3 cbr 210 ------- 0 0.1 3.0 29 193
+ 1.2125 0 3 cbr 210 ------- 0 0.1 3.0 30 197
- 1.2125 0 3 cbr 210 ------- 0 0.1 3.0 30 197
- 1.21264 0 2 tcp 1040 ------- 1 0.2 2.0 26 76
- 1.2128 0 4 tcp 1040 ------- 1 0.3 4.0 14 138
r 1.21368 0 1 cbr 210 ------- 0 0.0 1.0 56 196
+ 1.21375 0 1 cbr 210 ------- 0 0.0 1.0 57 198
- 1.21375 0 1 cbr 210 ------- 0 0.0 1.0 57 198
r 1.21464 0 2 tcp 1040 ------- 1 0.2 2.0 25 75
+ 1.21464 2 0 ack 40 ------- 1 2.0 0.2 25 199
- 1.21464 2 0 ack 40 ------- 1 2.0 0.2 25 199
r 1.2148 0 4 tcp 1040 ------- 1 0.3 4.0 13 137
+ 1.2148 4 0 ack 40 ------- 1 4.0 0.3 13 200
- 1.2148 4 0 ack 40 ------- 1 4.0 0.3 13 200
r 1.21618 0 3 cbr 210 ------- 0 0.1 3.0 30 197
+ 1.21625 0 3 cbr 210 ------- 0 0.1 3.0 31 201
- 1.21625 0 3 cbr 210 ------- 0 0.1 3.0 31 201
r 1.21696 2 0 ack 40 ------- 1 2.0 0.2 25 199
+ 1.21696 0 2 tcp 1040 ------- 1 0.2 2.0 45 202
r 1.21712 4 0 ack 40 ------- 1 4.0 0.3 13 200
+ 1.21712 0 4 tcp 1040 ------- 1 0.3 4.0 27 203
+ 1.21712 0 4 tcp 1040 ------- 1 0.3 4.0 28 204
r 1.21743 0 1 cbr 210 ------- 0 0.0 1.0 57 198
+ 1.2175 0 1 cbr 210 ------- 0 0.0 1.0 58 205
- 1.2175 0 1 cbr 210 ------- 0 0.0 1.0 58 205
r 1.21993 0 3 cbr 210 ------- 0 0.1 3.0 31 201
+ 1.22 0 3 cbr 210 ------- 0 0.1 3.0 32 206
- 1.22 0 3 cbr 210 ------- 0 0.1 3.0 32 206
- 1.22096 0 2 tcp 1040 ------- 1 0.2 2.0 27 83
- 1.22112 0 4 tcp 1040 ------- 1 0.3 4.0 15 146
r 1.22118 0 1 cbr 210 ------- 0 0.0 1.0 58 205
+ 1.22125 0 1 cbr 210 ------- 0 0.0 1.0 59 207
- 1.22125 0 1 cbr 210 ------- 0 0.0 1.0 59 207
r 1.22296 0 2 tcp 1040 ------- 1 0.2 2.0 26 76
+ 1.22296 2 0 ack 40 ------- 1 2.0 0.2 26 208
- 1.22296 2 0 ack 40 ------- 1 2.0 0.2 26 208
r 1.22312 0 4 tcp 1040 ------- 1 0.3 4.0 14 138
+ 1.22312 4 0 ack 40 ------- 1 4.0 0.3 14 209
- 1.22312 4 0 ack 40 ------- 1 4.0 0.3 14 209
r 1.22368 0 3 cbr 210 ------- 0 0.1 3.0 32 206
+ 1.22375 0 3 cbr 210 ------- 0 0.1 3.0 33 210
- 1.22375 0 3 cbr 210 ------- 0 0.1 3.0 33 210
r 1.22493 0 1 cbr 210 ------- 0 0.0 1.0 59 207
+ 1.225 0 1 cbr 210 ------- 0 0.0 1.0 60 211
- 1.225 0 1 cbr 210 ------- 0 0.0 1.0 60 211
r 1.22528 2 0 ack 40 ------- 1 2.0 0.2 26 208
+ 1.22528 0 2 tcp 1040 ------- 1 0.2 2.0 46 212
r 1.22544 4 0 ack 40 ------- 1 4.0 0.3 14 209
+ 1.22544 0 4 tcp 1040 ------- 1 0.3 4.0 29 213
+ 1.22544 0 4 tcp 1040 ------- 1 0.3 4.0 30 214
r 1.22743 0 3 cbr 210 ------- 0 0.1 3.0 33 210
+ 1.2275 0 3 cbr 210 ------- 0 0.1 3.0 34 215
- 1.2275 0 3 cbr 210 ------- 0 0.1 3.0 34 215
r 1.22868 0 1 cbr 210 ------- 0 0.0 1.0 60 211
+ 1.22875 0 1 cbr 210 ------- 0 0.0 1.0 61 216
- 1.22875 0 1 cbr 210 ------- 0 0.0 1.0 61 216
- 1.22928 0 2 tcp 1040 ------- 1 0.2 2.0 28 84
- 1.22944 0 4 tcp 1040 ------- 1 0.3 4.0 16 147
r 1.23118 0 3 cbr 210 ------- 0 0.1 3.0 34 215
+ 1.23125 0 3 cbr 210 ------- 0 0.1 3.0 35 217
- 1.23125 0 3 cbr 210 ------- 0 0.1 3.0 35 217
r 1.23128 0 2 tcp 1040 ------- 1 0.2 2.0 27 83
+ 1.23128 2 0 ack 40 ------- 1 2.0 0.2 27 218
- 1.23128 2 0 ack 40 ------- 1 2.0 0.2 27 218
r 1.23144 0 4 tcp 1040 ------- 1 0.3 4.0 15 146
+ 1.23144 4 0 ack 40 ------- 1 4.0 0.3 15 219
- 1.23144 4 0 ack 40 ------- 1 4.0 0.3 15 219
r 1.23243 0 1 cbr 210 ------- 0 0.0 1.0 61 216
+ 1.2325 0 1 cbr 210 ------- 0 0.0 1.0 62 220
- 1.2325 0 1 cbr 210 ------- 0 0.0 1.0 62 220
r 1.2336 2 0 ack 40 ------- 1 2.0 0.2 27 218
+ 1.2336 0 2 tcp 1040 ------- 1 0.2 2.0 47 221
r 1.23376 4 0 ack 40 ------- 1 4.0 0.3 15 219
+ 1.23376 0 4 tcp 1040 ------- 1 0.3 4.0 31 222
+ 1.23376 0 4 tcp 1040 ------- 1 0.3 4.0 32 223
r 1.23493 0 3 cbr 210 ------- 0 0.1 3.0 35 217
+ 1.235 0 3 cbr 210 ------- 0 0.1 3.0 36 224
- 1.235 0 3 cbr 210 ------- 0 0.1 3.0 36 224
r 1.23618 0 1 cbr 210 ------- 0 0.0 1.0 62 220
+ 1.23625 0 1 cbr 210 ------- 0 0.0 1.0 63 225
- 1.23625 0 1 cbr 210 ------- 0 0.0 1.0 63 225
- 1.2376 0 2 tcp 1040 ------- 1 0.2 2.0 29 93
- 1.23776 0 4 tcp 1040 ------- 1 0.3 4.0 17 156
r 1.23868 0 3 cbr 210 ------- 0 0.1 3.0 36 224
+ 1.23875 0 3 cbr 210 ------- 0 0.1 3.0 37 226
- 1.23875 0 3 cbr 210 ------- 0 0.1 3.0 37 226
r 1.2396 0 2 tcp 1040 ------- 1 0.2 2.0 28 84
+ 1.2396 2 0 ack 40 ------- 1 2.0 0.2 28 227
- 1.2396 2 0 ack 40 ------- 1 2.0 0.2 28 227
r 1.23976 0 4 tcp 1040 ------- 1 0.3 4.0 16 147
+ 1.23976 4 0 ack 40 ------- 1 4.0 0.3 16 228
- 1.23976 4 0 ack 40 ------- 1 4.0 0.3 16 228
r 1.23993 0 1 cbr 210 ------- 0 0.0 1.0 63 225
+ 1.24 0 1 cbr 210 ------- 0 0.0 1.0 64 229
- 1.24 0 1 cbr 210 ------- 0 0.0 1.0 64 229
r 1.24192 2 0 ack 40 ------- 1 2.0 0.2 28 227
+ 1.24192 0 2 tcp 1040 ------- 1 0.2 2.0 48 230
r 1.24208 4 0 ack 40 ------- 1 4.0 0.3 16 228
+ 1.24208 0 4 tcp 1040 ------- 1 0.3 4.0 33 231
+ 1.24208 0 4 tcp 1040 ------- 1 0.3 4.0 34 232
r 1.24243 0 3 cbr 210 ------- 0 0.1 3.0 37 226
+ 1.2425 0 3 cbr 210 ------- 0 0.1 3.0 38 233
- 1.2425 0 3 cbr 210 ------- 0 0.1 3.0 38 233
r 1.24368 0 1 cbr 210 ------- 0 0.0 1.0 64 229
+ 1.24375 0 1 cbr 210 ------- 0 0.0 1.0 65 234
- 1.24375 0 1 cbr 210 ------- 0 0.0 1.0 65 234
- 1.24592 0 2 tcp 1040 ------- 1 0.2 2.0 30 94
- 1.24608 0 4 tcp 1040 ------- 1 0.3 4.0 18 157
r 1.24618 0 3 cbr 210 ------- 0 0.1 3.0 38 233
+ 1.24625 0 3 cbr 210 ------- 0 0.1 3.0 39 235
- 1.24625 0 3 cbr 210 ------- 0 0.1 3.0 39 235
r 1.24743 0 1 cbr 210 ------- 0 0.0 1.0 65 234
+ 1.2475 0 1 cbr 210 ------- 0 0.0 1.0 66 236
- 1.2475 0 1 cbr 210 ------- 0 0.0 1.0 66 236
r 1.24792 0 2 tcp 1040 ------- 1 0.2 2.0 29 93
+ 1.24792 2 0 ack 40 ------- 1 2.0 0.2 29 237
- 1.24792 2 0 ack 40 ------- 1 2.0 0.2 29 237
r 1.24808 0 4 tcp 1040 ------- 1 0.3 4.0 17 156
+ 1.24808 4 0 ack 40 ------- 1 4.0 0.3 17 238
- 1.24808 4 0 ack 40 ------- 1 4.0 0.3 17 238
r 1.24993 0 3 cbr 210 ------- 0 0.1 3.0 39 235
+ 1.25 0 3 cbr 210 ------- 0 0.1 3.0 40 239
- 1.25 0 3 cbr 210 ------- 0 0.1 3.0 40 239
r 1.25024 2 0 ack 40 ------- 1 2.0 0.2 29 237
+ 1.25024 0 2 tcp 1040 ------- 1 0.2 2.0 49 240
r 1.2504 4 0 ack 40 ------- 1 4.0 0.3 17 238
+ 1.2504 0 4 tcp 1040 ------- 1 0.3 4.0 35 241
+ 1.2504 0 4 tcp 1040 ------- 1 0.3 4.0 36 242
r 1.25118 0 1 cbr 210 ------- 0 0.0 1.0 66 236
+ 1.25125 0 1 cbr 210 ------- 0 0.0 1.0 67 243
- 1.25125 0 1 cbr 210 ------- 0 0.0 1.0 67 243